<?xml version="1.0" encoding="UTF-8"?>

<!-- generated on 2023-10-12 16:28:38 by Eclipse SUMO GUI Version 1.18.0
<configuration xmlns:xsi="http://www.w3.org/2001/XMLSchema-instance" xsi:noNamespaceSchemaLocation="http://sumo.dlr.de/xsd/sumoConfiguration.xsd">

    <input>
        <net-file value="D:\Implementations\Mosas Studies\TrafficControlAlgorithms\Intersection\iot.net.xml"/>
        <route-files value="D:\Implementations\Mosas Studies\TrafficControlAlgorithms\Intersection\edited.rou.xml"/>
    </input>

    <output>
        <tripinfo-output value="D:\Implementations\Mosas Studies\TrafficControlAlgorithms\Intersection\7919Kilis.trips.xml"/>
    </output>

    <time>
        <begin value="0"/>
    </time>

    <processing>
        <step-method.ballistic value="true"/>
        <time-to-teleport value="-1"/>
    </processing>

    <report>
        <verbose value="true"/>
        <no-step-log value="true"/>
    </report>

</configuration>
-->

<tripinfos xmlns:xsi="http://www.w3.org/2001/XMLSchema-instance" xsi:noNamespaceSchemaLocation="http://sumo.dlr.de/xsd/tripinfo_file.xsd">
    <tripinfo id="Car35" depart="7.00" departLane="1_0_0" departPos="5.10" departSpeed="10.61" departDelay="1.00" arrival="123.00" arrivalLane="3_1_0" arrivalPos="750.00" arrivalSpeed="13.36" duration="116.00" routeLength="1503.93" waitingTime="0.00" waitingCount="0" stopTime="0.00" timeLoss="7.47" rerouteNo="0" devices="tripinfo_Car35 routing_Car35" vType="Car" speedFactor="1.01" vaporized=""/>
    <tripinfo id="Truck7" depart="10.00" departLane="1_0_0" departPos="7.20" departSpeed="14.21" departDelay="0.00" arrival="128.00" arrivalLane="3_1_0" arrivalPos="750.00" arrivalSpeed="13.56" duration="118.00" routeLength="1501.83" waitingTime="0.00" waitingCount="0" stopTime="0.00" timeLoss="11.25" rerouteNo="0" devices="tripinfo_Truck7 routing_Truck7" vType="Truck" speedFactor="1.02" vaporized=""/>
    <tripinfo id="Car32" depart="6.00" departLane="1_0_0" departPos="5.10" departSpeed="13.03" departDelay="0.00" arrival="131.00" arrivalLane="3_1_0" arrivalPos="750.00" arrivalSpeed="12.59" duration="125.00" routeLength="1503.93" waitingTime="0.00" waitingCount="0" stopTime="0.00" timeLoss="7.76" rerouteNo="0" devices="tripinfo_Car32 routing_Car32" vType="Car" speedFactor="0.94" vaporized=""/>
    <tripinfo id="Car23" depart="21.00" departLane="1_0_1" departPos="5.10" departSpeed="14.26" departDelay="0.00" arrival="133.00" arrivalLane="4_1_0" arrivalPos="750.00" arrivalSpeed="13.76" duration="112.00" routeLength="1516.89" waitingTime="0.00" waitingCount="0" stopTime="0.00" timeLoss="4.97" rerouteNo="0" devices="tripinfo_Car23 routing_Car23" vType="Car" speedFactor="1.03" vaporized=""/>
    <tripinfo id="Van5" depart="11.00" departLane="1_0_0" departPos="7.20" departSpeed="11.52" departDelay="0.00" arrival="135.00" arrivalLane="3_1_0" arrivalPos="750.00" arrivalSpeed="12.89" duration="124.00" routeLength="1501.83" waitingTime="0.00" waitingCount="0" stopTime="0.00" timeLoss="8.41" rerouteNo="0" devices="tripinfo_Van5 routing_Van5" vType="Truck" speedFactor="0.94" vaporized=""/>
    <tripinfo id="Truck3" depart="16.00" departLane="1_0_0" departPos="7.20" departSpeed="12.90" departDelay="0.00" arrival="140.00" arrivalLane="3_1_0" arrivalPos="750.00" arrivalSpeed="12.86" duration="124.00" routeLength="1501.83" waitingTime="0.00" waitingCount="0" stopTime="0.00" timeLoss="5.85" rerouteNo="0" devices="tripinfo_Truck3 routing_Truck3" vType="Truck" speedFactor="0.93" vaporized=""/>
    <tripinfo id="Car27" depart="31.00" departLane="1_0_0" departPos="5.10" departSpeed="13.77" departDelay="0.00" arrival="150.00" arrivalLane="3_1_0" arrivalPos="750.00" arrivalSpeed="13.72" duration="119.00" routeLength="1503.93" waitingTime="0.00" waitingCount="0" stopTime="0.00" timeLoss="8.09" rerouteNo="0" devices="tripinfo_Car27 routing_Car27" vType="Car" speedFactor="0.99" vaporized=""/>
    <tripinfo id="Car34" depart="32.00" departLane="1_0_0" departPos="5.10" departSpeed="10.98" departDelay="1.00" arrival="159.00" arrivalLane="3_1_0" arrivalPos="750.00" arrivalSpeed="12.20" duration="127.00" routeLength="1503.93" waitingTime="0.00" waitingCount="0" stopTime="0.00" timeLoss="8.52" rerouteNo="0" devices="tripinfo_Car34 routing_Car34" vType="Car" speedFactor="0.93" vaporized=""/>
    <tripinfo id="Car28" depart="44.00" departLane="1_0_0" departPos="5.10" departSpeed="14.03" departDelay="0.00" arrival="160.00" arrivalLane="3_1_1" arrivalPos="750.00" arrivalSpeed="13.30" duration="116.00" routeLength="1503.93" waitingTime="0.00" waitingCount="0" stopTime="0.00" timeLoss="7.91" rerouteNo="0" devices="tripinfo_Car28 routing_Car28" vType="Car" speedFactor="1.01" vaporized=""/>
    <tripinfo id="Car44" depart="6.00" departLane="2_0_0" departPos="5.10" departSpeed="15.04" departDelay="0.00" arrival="256.00" arrivalLane="4_1_0" arrivalPos="750.00" arrivalSpeed="14.71" duration="250.00" routeLength="1503.93" waitingTime="140.00" waitingCount="1" stopTime="0.00" timeLoss="149.01" rerouteNo="0" devices="tripinfo_Car44 routing_Car44" vType="Car" speedFactor="1.08" vaporized=""/>
    <tripinfo id="Motorcycle2" depart="6.00" departLane="2_0_1" departPos="2.30" departSpeed="14.72" departDelay="0.00" arrival="259.00" arrivalLane="3_1_0" arrivalPos="750.00" arrivalSpeed="12.24" duration="253.00" routeLength="1519.69" waitingTime="137.00" waitingCount="1" stopTime="0.00" timeLoss="148.81" rerouteNo="0" devices="tripinfo_Motorcycle2 routing_Motorcycle2" vType="Motorcycle" speedFactor="1.06" vaporized=""/>
    <tripinfo id="Car19" depart="10.00" departLane="2_0_1" departPos="5.10" departSpeed="14.31" departDelay="0.00" arrival="262.00" arrivalLane="3_1_0" arrivalPos="750.00" arrivalSpeed="13.26" duration="252.00" routeLength="1516.89" waitingTime="134.00" waitingCount="1" stopTime="0.00" timeLoss="144.71" rerouteNo="0" devices="tripinfo_Car19 routing_Car19" vType="Car" speedFactor="1.03" vaporized=""/>
    <tripinfo id="Truck8" depart="132.00" departLane="2_0_0" departPos="7.20" departSpeed="14.15" departDelay="0.00" arrival="265.00" arrivalLane="4_1_0" arrivalPos="750.00" arrivalSpeed="13.97" duration="133.00" routeLength="1501.83" waitingTime="15.00" waitingCount="1" stopTime="0.00" timeLoss="25.89" rerouteNo="0" devices="tripinfo_Truck8 routing_Truck8" vType="Truck" speedFactor="1.02" vaporized=""/>
    <tripinfo id="Truck2" depart="89.00" departLane="2_0_1" departPos="7.20" departSpeed="14.03" departDelay="0.00" arrival="267.00" arrivalLane="3_1_0" arrivalPos="750.00" arrivalSpeed="14.02" duration="178.00" routeLength="1514.79" waitingTime="59.00" waitingCount="1" stopTime="0.00" timeLoss="69.02" rerouteNo="0" devices="tripinfo_Truck2 routing_Truck2" vType="Truck" speedFactor="1.01" vaporized=""/>
    <tripinfo id="Car20" depart="16.00" departLane="2_0_1" departPos="5.10" departSpeed="13.03" departDelay="0.00" arrival="269.00" arrivalLane="3_1_0" arrivalPos="750.00" arrivalSpeed="12.57" duration="253.00" routeLength="1516.89" waitingTime="124.00" waitingCount="1" stopTime="0.00" timeLoss="136.18" rerouteNo="0" devices="tripinfo_Car20 routing_Car20" vType="Car" speedFactor="0.94" vaporized=""/>
    <tripinfo id="Car22" depart="51.00" departLane="2_0_1" departPos="5.10" departSpeed="11.47" departDelay="0.00" arrival="275.00" arrivalLane="1_1_0" arrivalPos="750.00" arrivalSpeed="10.93" duration="224.00" routeLength="1515.70" waitingTime="80.00" waitingCount="1" stopTime="0.00" timeLoss="91.55" rerouteNo="0" devices="tripinfo_Car22 routing_Car22" vType="Car" speedFactor="0.83" vaporized=""/>
    <tripinfo id="Car21" depart="135.00" departLane="2_0_1" departPos="5.10" departSpeed="12.51" departDelay="0.00" arrival="276.00" arrivalLane="1_1_1" arrivalPos="750.00" arrivalSpeed="12.38" duration="141.00" routeLength="1515.70" waitingTime="4.00" waitingCount="1" stopTime="0.00" timeLoss="19.47" rerouteNo="0" devices="tripinfo_Car21 routing_Car21" vType="Car" speedFactor="0.90" vaporized=""/>
    <tripinfo id="Motorcycle3" depart="139.00" departLane="2_0_1" departPos="2.30" departSpeed="11.81" departDelay="0.00" arrival="289.00" arrivalLane="3_1_0" arrivalPos="750.00" arrivalSpeed="10.78" duration="150.00" routeLength="1519.69" waitingTime="0.00" waitingCount="0" stopTime="0.00" timeLoss="20.31" rerouteNo="0" devices="tripinfo_Motorcycle3 routing_Motorcycle3" vType="Motorcycle" speedFactor="0.85" vaporized=""/>
    <tripinfo id="Motorcycle4" depart="196.00" departLane="2_0_1" departPos="2.30" departSpeed="15.87" departDelay="0.00" arrival="303.00" arrivalLane="3_1_0" arrivalPos="750.00" arrivalSpeed="12.92" duration="107.00" routeLength="1519.69" waitingTime="0.00" waitingCount="0" stopTime="0.00" timeLoss="10.76" rerouteNo="0" devices="tripinfo_Motorcycle4 routing_Motorcycle4" vType="Motorcycle" speedFactor="1.14" vaporized=""/>
    <tripinfo id="Motorcycle1" depart="183.00" departLane="2_0_1" departPos="2.30" departSpeed="13.83" departDelay="0.00" arrival="309.00" arrivalLane="3_1_0" arrivalPos="750.00" arrivalSpeed="12.90" duration="126.00" routeLength="1519.69" waitingTime="0.00" waitingCount="0" stopTime="0.00" timeLoss="15.26" rerouteNo="0" devices="tripinfo_Motorcycle1 routing_Motorcycle1" vType="Motorcycle" speedFactor="1.00" vaporized=""/>
    <tripinfo id="Car15" depart="16.00" departLane="3_0_1" departPos="5.10" departSpeed="15.15" departDelay="0.00" arrival="456.00" arrivalLane="1_1_0" arrivalPos="750.00" arrivalSpeed="13.85" duration="440.00" routeLength="1516.89" waitingTime="330.00" waitingCount="1" stopTime="0.00" timeLoss="338.69" rerouteNo="0" devices="tripinfo_Car15 routing_Car15" vType="Car" speedFactor="1.09" vaporized=""/>
    <tripinfo id="Car4" depart="25.00" departLane="3_0_0" departPos="5.10" departSpeed="15.60" departDelay="0.00" arrival="458.00" arrivalLane="2_1_0" arrivalPos="750.00" arrivalSpeed="15.23" duration="433.00" routeLength="1503.93" waitingTime="319.00" waitingCount="1" stopTime="0.00" timeLoss="335.06" rerouteNo="0" devices="tripinfo_Car4 routing_Car4" vType="Car" speedFactor="1.12" vaporized=""/>
    <tripinfo id="Car17" depart="25.00" departLane="3_0_1" departPos="5.10" departSpeed="14.54" departDelay="0.00" arrival="461.00" arrivalLane="1_1_0" arrivalPos="750.00" arrivalSpeed="13.85" duration="436.00" routeLength="1516.89" waitingTime="321.00" waitingCount="1" stopTime="0.00" timeLoss="330.55" rerouteNo="0" devices="tripinfo_Car17 routing_Car17" vType="Car" speedFactor="1.05" vaporized=""/>
    <tripinfo id="Car8" depart="36.00" departLane="3_0_1" departPos="5.10" departSpeed="9.92" departDelay="1.00" arrival="462.00" arrivalLane="1_1_1" arrivalPos="750.00" arrivalSpeed="15.34" duration="426.00" routeLength="1516.89" waitingTime="305.00" waitingCount="1" stopTime="0.00" timeLoss="330.42" rerouteNo="0" devices="tripinfo_Car8 routing_Car8" vType="Car" speedFactor="1.16" vaporized=""/>
    <tripinfo id="Van1" depart="82.00" departLane="3_0_1" departPos="7.20" departSpeed="14.96" departDelay="0.00" arrival="467.00" arrivalLane="1_1_1" arrivalPos="750.00" arrivalSpeed="14.59" duration="385.00" routeLength="1514.79" waitingTime="272.00" waitingCount="1" stopTime="0.00" timeLoss="283.26" rerouteNo="0" devices="tripinfo_Van1 routing_Van1" vType="Truck" speedFactor="1.08" vaporized=""/>
    <tripinfo id="Car6" depart="35.00" departLane="3_0_1" departPos="5.10" departSpeed="13.08" departDelay="0.00" arrival="469.00" arrivalLane="1_1_0" arrivalPos="750.00" arrivalSpeed="11.80" duration="434.00" routeLength="1516.89" waitingTime="306.00" waitingCount="1" stopTime="0.00" timeLoss="316.91" rerouteNo="0" devices="tripinfo_Car6 routing_Car6" vType="Car" speedFactor="0.94" vaporized=""/>
    <tripinfo id="Truck1" depart="88.00" departLane="3_0_0" departPos="7.20" departSpeed="13.85" departDelay="0.00" arrival="469.00" arrivalLane="4_1_0" arrivalPos="750.00" arrivalSpeed="13.34" duration="381.00" routeLength="1513.60" waitingTime="259.00" waitingCount="1" stopTime="0.00" timeLoss="270.91" rerouteNo="0" devices="tripinfo_Truck1 routing_Truck1" vType="Truck" speedFactor="1.00" vaporized=""/>
    <tripinfo id="Car18" depart="35.00" departLane="3_0_0" departPos="5.10" departSpeed="13.00" departDelay="0.00" arrival="470.00" arrivalLane="4_1_0" arrivalPos="750.00" arrivalSpeed="11.93" duration="435.00" routeLength="1515.70" waitingTime="306.00" waitingCount="1" stopTime="0.00" timeLoss="318.32" rerouteNo="0" devices="tripinfo_Car18 routing_Car18" vType="Car" speedFactor="0.94" vaporized=""/>
    <tripinfo id="Van2" depart="88.00" departLane="3_0_1" departPos="7.20" departSpeed="15.08" departDelay="0.00" arrival="470.00" arrivalLane="1_1_1" arrivalPos="750.00" arrivalSpeed="14.60" duration="382.00" routeLength="1514.79" waitingTime="268.00" waitingCount="1" stopTime="0.00" timeLoss="280.62" rerouteNo="0" devices="tripinfo_Van2 routing_Van2" vType="Truck" speedFactor="1.09" vaporized=""/>
    <tripinfo id="Car48" depart="310.00" departLane="3_0_0" departPos="5.10" departSpeed="14.21" departDelay="0.00" arrival="473.00" arrivalLane="2_1_1" arrivalPos="750.00" arrivalSpeed="13.45" duration="163.00" routeLength="1503.93" waitingTime="40.00" waitingCount="1" stopTime="0.00" timeLoss="56.39" rerouteNo="0" devices="tripinfo_Car48 routing_Car48" vType="Car" speedFactor="1.02" vaporized=""/>
    <tripinfo id="Car5" depart="10.00" departLane="3_0_0" departPos="5.10" departSpeed="11.54" departDelay="0.00" arrival="474.00" arrivalLane="2_1_0" arrivalPos="750.00" arrivalSpeed="10.41" duration="464.00" routeLength="1503.93" waitingTime="320.00" waitingCount="1" stopTime="0.00" timeLoss="332.10" rerouteNo="0" devices="tripinfo_Car5 routing_Car5" vType="Car" speedFactor="0.83" vaporized=""/>
    <tripinfo id="Car12" depart="101.00" departLane="3_0_1" departPos="5.10" departSpeed="15.31" departDelay="0.00" arrival="474.00" arrivalLane="1_1_1" arrivalPos="750.00" arrivalSpeed="15.28" duration="373.00" routeLength="1516.89" waitingTime="257.00" waitingCount="1" stopTime="0.00" timeLoss="273.07" rerouteNo="0" devices="tripinfo_Car12 routing_Car12" vType="Car" speedFactor="1.10" vaporized=""/>
    <tripinfo id="Car7" depart="51.00" departLane="3_0_1" departPos="5.10" departSpeed="12.36" departDelay="0.00" arrival="477.00" arrivalLane="1_1_0" arrivalPos="750.00" arrivalSpeed="11.51" duration="426.00" routeLength="1516.89" waitingTime="289.00" waitingCount="1" stopTime="0.00" timeLoss="302.14" rerouteNo="0" devices="tripinfo_Car7 routing_Car7" vType="Car" speedFactor="0.89" vaporized=""/>
    <tripinfo id="Car16" depart="92.00" departLane="3_0_1" departPos="5.10" departSpeed="13.52" departDelay="0.00" arrival="479.00" arrivalLane="1_1_0" arrivalPos="750.00" arrivalSpeed="12.45" duration="387.00" routeLength="1516.89" waitingTime="259.00" waitingCount="1" stopTime="0.00" timeLoss="274.00" rerouteNo="0" devices="tripinfo_Car16 routing_Car16" vType="Car" speedFactor="0.97" vaporized=""/>
    <tripinfo id="Motorcycle6" depart="348.00" departLane="3_0_0" departPos="2.30" departSpeed="14.34" departDelay="0.00" arrival="481.00" arrivalLane="2_1_0" arrivalPos="750.00" arrivalSpeed="12.69" duration="133.00" routeLength="1506.73" waitingTime="4.00" waitingCount="1" stopTime="0.00" timeLoss="27.32" rerouteNo="0" devices="tripinfo_Motorcycle6 routing_Motorcycle6" vType="Motorcycle" speedFactor="1.03" vaporized=""/>
    <tripinfo id="Car9" depart="161.00" departLane="3_0_1" departPos="5.10" departSpeed="14.12" departDelay="0.00" arrival="483.00" arrivalLane="1_1_1" arrivalPos="750.00" arrivalSpeed="13.71" duration="322.00" routeLength="1516.89" waitingTime="198.00" waitingCount="1" stopTime="0.00" timeLoss="213.89" rerouteNo="0" devices="tripinfo_Car9 routing_Car9" vType="Car" speedFactor="1.02" vaporized=""/>
    <tripinfo id="Truck0" depart="137.00" departLane="3_0_1" departPos="7.20" departSpeed="13.04" departDelay="0.00" arrival="484.00" arrivalLane="1_1_0" arrivalPos="750.00" arrivalSpeed="12.47" duration="347.00" routeLength="1514.79" waitingTime="217.00" waitingCount="1" stopTime="0.00" timeLoss="230.06" rerouteNo="0" devices="tripinfo_Truck0 routing_Truck0" vType="Truck" speedFactor="0.94" vaporized=""/>
    <tripinfo id="Car49" depart="353.00" departLane="3_0_0" departPos="5.10" departSpeed="13.99" departDelay="0.00" arrival="484.00" arrivalLane="2_1_1" arrivalPos="750.00" arrivalSpeed="13.21" duration="131.00" routeLength="1503.93" waitingTime="1.00" waitingCount="1" stopTime="0.00" timeLoss="22.34" rerouteNo="0" devices="tripinfo_Car49 routing_Car49" vType="Car" speedFactor="1.01" vaporized=""/>
    <tripinfo id="Van0" depart="172.00" departLane="3_0_1" departPos="7.20" departSpeed="14.56" departDelay="0.00" arrival="485.00" arrivalLane="1_1_1" arrivalPos="750.00" arrivalSpeed="14.11" duration="313.00" routeLength="1514.79" waitingTime="192.00" waitingCount="1" stopTime="0.00" timeLoss="207.97" rerouteNo="0" devices="tripinfo_Van0 routing_Van0" vType="Truck" speedFactor="1.05" vaporized=""/>
    <tripinfo id="Motorcycle7" depart="336.00" departLane="3_0_0" departPos="2.30" departSpeed="13.27" departDelay="0.00" arrival="486.00" arrivalLane="2_1_1" arrivalPos="750.00" arrivalSpeed="12.63" duration="150.00" routeLength="1506.73" waitingTime="9.00" waitingCount="1" stopTime="0.00" timeLoss="35.62" rerouteNo="0" devices="tripinfo_Motorcycle7 routing_Motorcycle7" vType="Motorcycle" speedFactor="0.96" vaporized=""/>
    <tripinfo id="Motorcycle0" depart="140.00" departLane="3_0_0" departPos="2.30" departSpeed="11.87" departDelay="0.00" arrival="487.00" arrivalLane="2_1_0" arrivalPos="750.00" arrivalSpeed="9.02" duration="347.00" routeLength="1506.73" waitingTime="195.00" waitingCount="1" stopTime="0.00" timeLoss="218.62" rerouteNo="0" devices="tripinfo_Motorcycle0 routing_Motorcycle0" vType="Motorcycle" speedFactor="0.85" vaporized=""/>
    <tripinfo id="Car10" depart="202.00" departLane="3_0_1" departPos="5.10" departSpeed="15.04" departDelay="0.00" arrival="487.00" arrivalLane="1_1_0" arrivalPos="750.00" arrivalSpeed="14.99" duration="285.00" routeLength="1516.89" waitingTime="165.00" waitingCount="1" stopTime="0.00" timeLoss="182.93" rerouteNo="0" devices="tripinfo_Car10 routing_Car10" vType="Car" speedFactor="1.08" vaporized=""/>
    <tripinfo id="Car11" depart="214.00" departLane="3_0_1" departPos="5.10" departSpeed="15.55" departDelay="0.00" arrival="488.00" arrivalLane="1_1_1" arrivalPos="750.00" arrivalSpeed="15.13" duration="274.00" routeLength="1516.89" waitingTime="156.00" waitingCount="1" stopTime="0.00" timeLoss="175.64" rerouteNo="0" devices="tripinfo_Car11 routing_Car11" vType="Car" speedFactor="1.12" vaporized=""/>
    <tripinfo id="Car13" depart="184.00" departLane="3_0_1" departPos="5.10" departSpeed="12.49" departDelay="0.00" arrival="495.00" arrivalLane="1_1_0" arrivalPos="750.00" arrivalSpeed="11.91" duration="311.00" routeLength="1516.89" waitingTime="172.00" waitingCount="1" stopTime="0.00" timeLoss="188.63" rerouteNo="0" devices="tripinfo_Car13 routing_Car13" vType="Car" speedFactor="0.90" vaporized=""/>
    <tripinfo id="Car55" depart="355.00" departLane="3_0_1" departPos="5.10" departSpeed="14.37" departDelay="0.00" arrival="497.00" arrivalLane="1_1_1" arrivalPos="750.00" arrivalSpeed="13.54" duration="142.00" routeLength="1516.89" waitingTime="16.00" waitingCount="1" stopTime="0.00" timeLoss="36.20" rerouteNo="0" devices="tripinfo_Car55 routing_Car55" vType="Car" speedFactor="1.03" vaporized=""/>
    <tripinfo id="Truck12" depart="321.00" departLane="3_0_1" departPos="7.20" departSpeed="14.28" departDelay="0.00" arrival="499.00" arrivalLane="1_1_1" arrivalPos="750.00" arrivalSpeed="13.74" duration="178.00" routeLength="1514.79" waitingTime="50.00" waitingCount="1" stopTime="0.00" timeLoss="71.25" rerouteNo="0" devices="tripinfo_Truck12 routing_Truck12" vType="Truck" speedFactor="1.03" vaporized=""/>
    <tripinfo id="Car14" depart="284.00" departLane="3_0_1" departPos="5.10" departSpeed="12.60" departDelay="0.00" arrival="501.00" arrivalLane="1_1_0" arrivalPos="750.00" arrivalSpeed="12.30" duration="217.00" routeLength="1516.89" waitingTime="78.00" waitingCount="1" stopTime="0.00" timeLoss="95.56" rerouteNo="0" devices="tripinfo_Car14 routing_Car14" vType="Car" speedFactor="0.91" vaporized=""/>
    <tripinfo id="Car53" depart="408.00" departLane="3_0_1" departPos="5.10" departSpeed="13.99" departDelay="0.00" arrival="524.00" arrivalLane="1_1_0" arrivalPos="750.00" arrivalSpeed="12.81" duration="116.00" routeLength="1516.89" waitingTime="0.00" waitingCount="0" stopTime="0.00" timeLoss="6.37" rerouteNo="0" devices="tripinfo_Car53 routing_Car53" vType="Car" speedFactor="1.01" vaporized=""/>
    <tripinfo id="Van9" depart="413.00" departLane="3_0_0" departPos="7.20" departSpeed="14.01" departDelay="0.00" arrival="527.00" arrivalLane="2_1_0" arrivalPos="750.00" arrivalSpeed="13.90" duration="114.00" routeLength="1501.83" waitingTime="0.00" waitingCount="0" stopTime="0.00" timeLoss="5.38" rerouteNo="0" devices="tripinfo_Van9 routing_Van9" vType="Truck" speedFactor="1.01" vaporized=""/>
    <tripinfo id="Car52" depart="412.00" departLane="3_0_1" departPos="5.10" departSpeed="14.20" departDelay="0.00" arrival="528.00" arrivalLane="3_1_0" arrivalPos="750.00" arrivalSpeed="13.45" duration="116.00" routeLength="1499.57" waitingTime="0.00" waitingCount="0" stopTime="0.00" timeLoss="8.55" rerouteNo="0" devices="tripinfo_Car52 routing_Car52" vType="Car" speedFactor="1.02" vaporized=""/>
    <tripinfo id="Car3" depart="35.00" departLane="4_0_1" departPos="5.10" departSpeed="14.14" departDelay="0.00" arrival="660.00" arrivalLane="3_1_0" arrivalPos="750.00" arrivalSpeed="13.21" duration="625.00" routeLength="1515.70" waitingTime="508.00" waitingCount="1" stopTime="0.00" timeLoss="517.42" rerouteNo="0" devices="tripinfo_Car3 routing_Car3" vType="Car" speedFactor="1.02" vaporized=""/>
    <tripinfo id="Car51" depart="494.00" departLane="4_0_1" departPos="5.10" departSpeed="14.79" departDelay="0.00" arrival="662.00" arrivalLane="2_1_0" arrivalPos="750.00" arrivalSpeed="13.70" duration="168.00" routeLength="1516.89" waitingTime="54.00" waitingCount="1" stopTime="0.00" timeLoss="64.64" rerouteNo="0" devices="tripinfo_Car51 routing_Car51" vType="Car" speedFactor="1.06" vaporized=""/>
    <tripinfo id="Car0" depart="129.00" departLane="4_0_1" departPos="5.10" departSpeed="13.29" departDelay="0.00" arrival="666.00" arrivalLane="3_1_0" arrivalPos="750.00" arrivalSpeed="12.97" duration="537.00" routeLength="1515.70" waitingTime="411.00" waitingCount="1" stopTime="0.00" timeLoss="422.16" rerouteNo="0" devices="tripinfo_Car0 routing_Car0" vType="Car" speedFactor="0.96" vaporized=""/>
    <tripinfo id="Car1" depart="35.00" departLane="4_0_0" departPos="5.10" departSpeed="12.20" departDelay="0.00" arrival="670.00" arrivalLane="3_1_0" arrivalPos="750.00" arrivalSpeed="11.31" duration="635.00" routeLength="1515.70" waitingTime="498.00" waitingCount="1" stopTime="0.00" timeLoss="509.89" rerouteNo="0" devices="tripinfo_Car1 routing_Car1" vType="Car" speedFactor="0.88" vaporized=""/>
    <tripinfo id="Car2" depart="55.00" departLane="4_0_1" departPos="5.10" departSpeed="12.12" departDelay="0.00" arrival="672.00" arrivalLane="3_1_0" arrivalPos="750.00" arrivalSpeed="10.93" duration="617.00" routeLength="1515.70" waitingTime="480.00" waitingCount="1" stopTime="0.00" timeLoss="491.47" rerouteNo="0" devices="tripinfo_Car2 routing_Car2" vType="Car" speedFactor="0.87" vaporized=""/>
    <tripinfo id="Truck21" depart="608.00" departLane="4_0_0" departPos="7.20" departSpeed="14.38" departDelay="0.00" arrival="716.00" arrivalLane="3_1_0" arrivalPos="750.00" arrivalSpeed="13.81" duration="108.00" routeLength="1513.60" waitingTime="0.00" waitingCount="0" stopTime="0.00" timeLoss="2.72" rerouteNo="0" devices="tripinfo_Truck21 routing_Truck21" vType="Truck" speedFactor="1.04" vaporized=""/>
    <tripinfo id="Car24" depart="132.00" departLane="1_0_1" departPos="5.10" departSpeed="15.17" departDelay="0.00" arrival="858.00" arrivalLane="4_1_0" arrivalPos="750.00" arrivalSpeed="13.99" duration="726.00" routeLength="1516.89" waitingTime="615.00" waitingCount="1" stopTime="0.00" timeLoss="625.26" rerouteNo="0" devices="tripinfo_Car24 routing_Car24" vType="Car" speedFactor="1.09" vaporized=""/>
    <tripinfo id="Car38" depart="59.00" departLane="1_0_0" departPos="5.10" departSpeed="15.72" departDelay="0.00" arrival="859.00" arrivalLane="3_1_0" arrivalPos="750.00" arrivalSpeed="15.52" duration="800.00" routeLength="1503.93" waitingTime="684.00" waitingCount="1" stopTime="0.00" timeLoss="704.03" rerouteNo="0" devices="tripinfo_Car38 routing_Car38" vType="Car" speedFactor="1.13" vaporized=""/>
    <tripinfo id="Car25" depart="140.00" departLane="1_0_1" departPos="5.10" departSpeed="16.24" departDelay="0.00" arrival="861.00" arrivalLane="4_1_0" arrivalPos="750.00" arrivalSpeed="15.06" duration="721.00" routeLength="1516.89" waitingTime="613.00" waitingCount="1" stopTime="0.00" timeLoss="626.02" rerouteNo="0" devices="tripinfo_Car25 routing_Car25" vType="Car" speedFactor="1.17" vaporized=""/>
    <tripinfo id="Car40" depart="47.00" departLane="1_0_0" departPos="5.10" departSpeed="13.54" departDelay="0.00" arrival="862.00" arrivalLane="3_1_0" arrivalPos="750.00" arrivalSpeed="12.47" duration="815.00" routeLength="1503.93" waitingTime="693.00" waitingCount="1" stopTime="0.00" timeLoss="703.12" rerouteNo="0" devices="tripinfo_Car40 routing_Car40" vType="Car" speedFactor="0.97" vaporized=""/>
    <tripinfo id="Van7" depart="134.00" departLane="1_0_1" departPos="7.20" departSpeed="14.50" departDelay="0.00" arrival="864.00" arrivalLane="2_1_1" arrivalPos="750.00" arrivalSpeed="14.36" duration="730.00" routeLength="1513.60" waitingTime="614.00" waitingCount="1" stopTime="0.00" timeLoss="625.14" rerouteNo="0" devices="tripinfo_Van7 routing_Van7" vType="Truck" speedFactor="1.04" vaporized=""/>
    <tripinfo id="Car42" depart="55.00" departLane="1_0_1" departPos="5.10" departSpeed="12.74" departDelay="0.00" arrival="866.00" arrivalLane="2_1_0" arrivalPos="750.00" arrivalSpeed="12.25" duration="811.00" routeLength="1515.70" waitingTime="681.00" waitingCount="1" stopTime="0.00" timeLoss="691.44" rerouteNo="0" devices="tripinfo_Car42 routing_Car42" vType="Car" speedFactor="0.92" vaporized=""/>
    <tripinfo id="Car37" depart="55.00" departLane="1_0_0" departPos="5.10" departSpeed="13.18" departDelay="0.00" arrival="867.00" arrivalLane="3_1_0" arrivalPos="750.00" arrivalSpeed="12.20" duration="812.00" routeLength="1503.93" waitingTime="685.00" waitingCount="1" stopTime="0.00" timeLoss="696.42" rerouteNo="0" devices="tripinfo_Car37 routing_Car37" vType="Car" speedFactor="0.95" vaporized=""/>
    <tripinfo id="Car43" depart="295.00" departLane="1_0_0" departPos="5.10" departSpeed="14.45" departDelay="0.00" arrival="872.00" arrivalLane="2_1_0" arrivalPos="750.00" arrivalSpeed="13.56" duration="577.00" routeLength="1515.70" waitingTime="453.00" waitingCount="1" stopTime="0.00" timeLoss="471.58" rerouteNo="0" devices="tripinfo_Car43 routing_Car43" vType="Car" speedFactor="1.04" vaporized=""/>
    <tripinfo id="Car41" depart="281.00" departLane="1_0_1" departPos="5.10" departSpeed="13.02" departDelay="0.00" arrival="874.00" arrivalLane="2_1_0" arrivalPos="750.00" arrivalSpeed="11.75" duration="593.00" routeLength="1515.70" waitingTime="463.00" waitingCount="1" stopTime="0.00" timeLoss="476.46" rerouteNo="0" devices="tripinfo_Car41 routing_Car41" vType="Car" speedFactor="0.94" vaporized=""/>
    <tripinfo id="Car33" depart="82.00" departLane="1_0_0" departPos="5.10" departSpeed="13.96" departDelay="0.00" arrival="875.00" arrivalLane="3_1_0" arrivalPos="750.00" arrivalSpeed="12.92" duration="793.00" routeLength="1503.93" waitingTime="664.00" waitingCount="1" stopTime="0.00" timeLoss="684.41" rerouteNo="0" devices="tripinfo_Car33 routing_Car33" vType="Car" speedFactor="1.01" vaporized=""/>
    <tripinfo id="Van6" depart="97.00" departLane="1_0_0" departPos="7.20" departSpeed="15.14" departDelay="0.00" arrival="875.00" arrivalLane="3_1_1" arrivalPos="750.00" arrivalSpeed="14.70" duration="778.00" routeLength="1501.83" waitingTime="659.00" waitingCount="1" stopTime="0.00" timeLoss="677.40" rerouteNo="0" devices="tripinfo_Van6 routing_Van6" vType="Truck" speedFactor="1.09" vaporized=""/>
    <tripinfo id="Motorcycle16" depart="434.00" departLane="1_0_1" departPos="2.30" departSpeed="15.15" departDelay="0.00" arrival="875.00" arrivalLane="2_1_1" arrivalPos="750.00" arrivalSpeed="12.29" duration="441.00" routeLength="1518.50" waitingTime="321.00" waitingCount="1" stopTime="0.00" timeLoss="340.76" rerouteNo="0" devices="tripinfo_Motorcycle16 routing_Motorcycle16" vType="Motorcycle" speedFactor="1.09" vaporized=""/>
    <tripinfo id="Van8" depart="295.00" departLane="1_0_1" departPos="7.20" departSpeed="14.04" departDelay="0.00" arrival="876.00" arrivalLane="2_1_0" arrivalPos="750.00" arrivalSpeed="13.77" duration="581.00" routeLength="1513.60" waitingTime="457.00" waitingCount="1" stopTime="0.00" timeLoss="472.59" rerouteNo="0" devices="tripinfo_Van8 routing_Van8" vType="Truck" speedFactor="1.01" vaporized=""/>
    <tripinfo id="Truck6" depart="73.00" departLane="1_0_0" departPos="7.20" departSpeed="5.10" departDelay="0.00" arrival="877.00" arrivalLane="3_1_1" arrivalPos="750.00" arrivalSpeed="14.79" duration="804.00" routeLength="1501.83" waitingTime="665.00" waitingCount="1" stopTime="0.00" timeLoss="703.44" rerouteNo="0" devices="tripinfo_Truck6 routing_Truck6" vType="Truck" speedFactor="1.09" vaporized=""/>
    <tripinfo id="Truck18" depart="562.00" departLane="1_0_1" departPos="7.20" departSpeed="14.34" departDelay="0.00" arrival="877.00" arrivalLane="2_1_1" arrivalPos="750.00" arrivalSpeed="14.10" duration="315.00" routeLength="1513.60" waitingTime="195.00" waitingCount="1" stopTime="0.00" timeLoss="209.39" rerouteNo="0" devices="tripinfo_Truck18 routing_Truck18" vType="Truck" speedFactor="1.03" vaporized=""/>