<?xml version="1.0" encoding="UTF-8"?>

<!-- generated on 2023-10-27 13:33:56 by Eclipse SUMO GUI Version 1.18.0
<configuration xmlns:xsi="http://www.w3.org/2001/XMLSchema-instance" xsi:noNamespaceSchemaLocation="http://sumo.dlr.de/xsd/sumoConfiguration.xsd">

    <input>
        <net-file value="D:\Implementations\Mosas Studies\TrafficControlAlgorithms\Intersection\iot.net.xml"/>
        <route-files value="D:\Implementations\Mosas Studies\TrafficControlAlgorithms\Intersection\edited.rou.xml"/>
    </input>

    <output>
        <tripinfo-output value="statsST\tripinfo.trips.xml"/>
        <statistic-output value="statsST\statistics.stats.xml"/>
    </output>

    <time>
        <begin value="0"/>
    </time>

    <processing>
        <step-method.ballistic value="true"/>
        <time-to-teleport value="-1"/>
    </processing>

    <report>
        <verbose value="true"/>
        <no-step-log value="true"/>
    </report>

    <traci_server>
        <remote-port value="58710"/>
    </traci_server>

    <gui_only>
        <quit-on-end value="true"/>
        <start value="true"/>
    </gui_only>

</configuration>
-->

<tripinfos xmlns:xsi="http://www.w3.org/2001/XMLSchema-instance" xsi:noNamespaceSchemaLocation="http://sumo.dlr.de/xsd/tripinfo_file.xsd">
    <tripinfo id="Car44" depart="6.00" departLane="2_0_0" departPos="5.10" departSpeed="15.04" departDelay="0.00" arrival="113.00" arrivalLane="4_1_0" arrivalPos="750.00" arrivalSpeed="14.36" duration="107.00" routeLength="1503.93" waitingTime="0.00" waitingCount="0" stopTime="0.00" timeLoss="6.28" rerouteNo="0" devices="tripinfo_Car44 routing_Car44" vType="Car" speedFactor="1.08" vaporized=""/>
    <tripinfo id="Car35" depart="7.00" departLane="1_0_0" departPos="5.10" departSpeed="10.61" departDelay="1.00" arrival="124.00" arrivalLane="3_1_0" arrivalPos="750.00" arrivalSpeed="12.93" duration="117.00" routeLength="1503.93" waitingTime="0.00" waitingCount="0" stopTime="0.00" timeLoss="7.94" rerouteNo="0" devices="tripinfo_Car35 routing_Car35" vType="Car" speedFactor="1.01" vaporized=""/>
    <tripinfo id="Motorcycle2" depart="6.00" departLane="2_0_1" departPos="2.30" departSpeed="14.72" departDelay="0.00" arrival="129.00" arrivalLane="3_1_0" arrivalPos="750.00" arrivalSpeed="14.34" duration="123.00" routeLength="1519.69" waitingTime="6.00" waitingCount="1" stopTime="0.00" timeLoss="18.49" rerouteNo="0" devices="tripinfo_Motorcycle2 routing_Motorcycle2" vType="Motorcycle" speedFactor="1.06" vaporized=""/>
    <tripinfo id="Car19" depart="10.00" departLane="2_0_1" departPos="5.10" departSpeed="14.31" departDelay="0.00" arrival="131.00" arrivalLane="3_1_1" arrivalPos="750.00" arrivalSpeed="13.68" duration="121.00" routeLength="1516.89" waitingTime="3.00" waitingCount="1" stopTime="0.00" timeLoss="13.71" rerouteNo="0" devices="tripinfo_Car19 routing_Car19" vType="Car" speedFactor="1.03" vaporized=""/>
    <tripinfo id="Car20" depart="16.00" departLane="2_0_1" departPos="5.10" departSpeed="13.03" departDelay="0.00" arrival="141.00" arrivalLane="3_1_0" arrivalPos="750.00" arrivalSpeed="11.93" duration="125.00" routeLength="1516.89" waitingTime="0.00" waitingCount="0" stopTime="0.00" timeLoss="7.27" rerouteNo="0" devices="tripinfo_Car20 routing_Car20" vType="Car" speedFactor="0.94" vaporized=""/>
    <tripinfo id="Car15" depart="16.00" departLane="3_0_1" departPos="5.10" departSpeed="15.15" departDelay="0.00" arrival="144.00" arrivalLane="1_1_0" arrivalPos="750.00" arrivalSpeed="14.31" duration="128.00" routeLength="1516.89" waitingTime="17.00" waitingCount="1" stopTime="0.00" timeLoss="26.91" rerouteNo="0" devices="tripinfo_Car15 routing_Car15" vType="Car" speedFactor="1.09" vaporized=""/>
    <tripinfo id="Car4" depart="25.00" departLane="3_0_0" departPos="5.10" departSpeed="15.60" departDelay="0.00" arrival="144.00" arrivalLane="2_1_0" arrivalPos="750.00" arrivalSpeed="15.23" duration="119.00" routeLength="1503.93" waitingTime="6.00" waitingCount="1" stopTime="0.00" timeLoss="22.09" rerouteNo="0" devices="tripinfo_Car4 routing_Car4" vType="Car" speedFactor="1.12" vaporized=""/>
    <tripinfo id="Car17" depart="25.00" departLane="3_0_1" departPos="5.10" departSpeed="14.54" departDelay="0.00" arrival="148.00" arrivalLane="1_1_0" arrivalPos="750.00" arrivalSpeed="14.29" duration="123.00" routeLength="1516.89" waitingTime="8.00" waitingCount="1" stopTime="0.00" timeLoss="17.67" rerouteNo="0" devices="tripinfo_Car17 routing_Car17" vType="Car" speedFactor="1.05" vaporized=""/>
    <tripinfo id="Car8" depart="36.00" departLane="3_0_1" departPos="5.10" departSpeed="9.92" departDelay="1.00" arrival="152.00" arrivalLane="1_1_0" arrivalPos="750.00" arrivalSpeed="16.06" duration="116.00" routeLength="1516.89" waitingTime="0.00" waitingCount="0" stopTime="0.00" timeLoss="20.36" rerouteNo="0" devices="tripinfo_Car8 routing_Car8" vType="Car" speedFactor="1.16" vaporized=""/>
    <tripinfo id="Car18" depart="35.00" departLane="3_0_0" departPos="5.10" departSpeed="13.00" departDelay="0.00" arrival="158.00" arrivalLane="4_1_0" arrivalPos="750.00" arrivalSpeed="12.69" duration="123.00" routeLength="1515.70" waitingTime="0.00" waitingCount="0" stopTime="0.00" timeLoss="6.15" rerouteNo="0" devices="tripinfo_Car18 routing_Car18" vType="Car" speedFactor="0.94" vaporized=""/>
    <tripinfo id="Car6" depart="35.00" departLane="3_0_1" departPos="5.10" departSpeed="13.08" departDelay="0.00" arrival="159.00" arrivalLane="1_1_0" arrivalPos="750.00" arrivalSpeed="12.14" duration="124.00" routeLength="1516.89" waitingTime="0.00" waitingCount="0" stopTime="0.00" timeLoss="6.88" rerouteNo="0" devices="tripinfo_Car6 routing_Car6" vType="Car" speedFactor="0.94" vaporized=""/>
    <tripinfo id="Car5" depart="10.00" departLane="3_0_0" departPos="5.10" departSpeed="11.54" departDelay="0.00" arrival="161.00" arrivalLane="2_1_0" arrivalPos="750.00" arrivalSpeed="11.46" duration="151.00" routeLength="1503.93" waitingTime="7.00" waitingCount="1" stopTime="0.00" timeLoss="18.95" rerouteNo="0" devices="tripinfo_Car5 routing_Car5" vType="Car" speedFactor="0.83" vaporized=""/>
    <tripinfo id="Car23" depart="21.00" departLane="1_0_1" departPos="5.10" departSpeed="14.26" departDelay="0.00" arrival="165.00" arrivalLane="4_1_0" arrivalPos="750.00" arrivalSpeed="13.47" duration="144.00" routeLength="1516.89" waitingTime="27.00" waitingCount="1" stopTime="0.00" timeLoss="36.31" rerouteNo="0" devices="tripinfo_Car23 routing_Car23" vType="Car" speedFactor="1.03" vaporized=""/>
    <tripinfo id="Truck7" depart="10.00" departLane="1_0_0" departPos="7.20" departSpeed="14.21" departDelay="0.00" arrival="167.00" arrivalLane="3_1_0" arrivalPos="750.00" arrivalSpeed="13.75" duration="157.00" routeLength="1501.83" waitingTime="36.00" waitingCount="1" stopTime="0.00" timeLoss="50.18" rerouteNo="0" devices="tripinfo_Truck7 routing_Truck7" vType="Truck" speedFactor="1.02" vaporized=""/>
    <tripinfo id="Car32" depart="6.00" departLane="1_0_0" departPos="5.10" departSpeed="13.03" departDelay="0.00" arrival="170.00" arrivalLane="3_1_0" arrivalPos="750.00" arrivalSpeed="11.86" duration="164.00" routeLength="1503.93" waitingTime="37.00" waitingCount="1" stopTime="0.00" timeLoss="47.49" rerouteNo="0" devices="tripinfo_Car32 routing_Car32" vType="Car" speedFactor="0.94" vaporized=""/>
    <tripinfo id="Van5" depart="11.00" departLane="1_0_0" departPos="7.20" departSpeed="11.52" departDelay="0.00" arrival="175.00" arrivalLane="3_1_0" arrivalPos="750.00" arrivalSpeed="12.50" duration="164.00" routeLength="1501.83" waitingTime="36.00" waitingCount="1" stopTime="0.00" timeLoss="48.46" rerouteNo="0" devices="tripinfo_Van5 routing_Van5" vType="Truck" speedFactor="0.94" vaporized=""/>
    <tripinfo id="Truck3" depart="16.00" departLane="1_0_0" departPos="7.20" departSpeed="12.90" departDelay="0.00" arrival="179.00" arrivalLane="3_1_0" arrivalPos="750.00" arrivalSpeed="12.42" duration="163.00" routeLength="1501.83" waitingTime="33.00" waitingCount="1" stopTime="0.00" timeLoss="45.38" rerouteNo="0" devices="tripinfo_Truck3 routing_Truck3" vType="Truck" speedFactor="0.93" vaporized=""/>
    <tripinfo id="Car27" depart="31.00" departLane="1_0_0" departPos="5.10" departSpeed="13.77" departDelay="0.00" arrival="179.00" arrivalLane="3_1_1" arrivalPos="750.00" arrivalSpeed="12.75" duration="148.00" routeLength="1503.93" waitingTime="21.00" waitingCount="1" stopTime="0.00" timeLoss="37.08" rerouteNo="0" devices="tripinfo_Car27 routing_Car27" vType="Car" speedFactor="0.99" vaporized=""/>
    <tripinfo id="Car42" depart="55.00" departLane="1_0_1" departPos="5.10" departSpeed="12.74" departDelay="0.00" arrival="180.00" arrivalLane="2_1_0" arrivalPos="750.00" arrivalSpeed="12.34" duration="125.00" routeLength="1515.70" waitingTime="0.00" waitingCount="0" stopTime="0.00" timeLoss="5.85" rerouteNo="0" devices="tripinfo_Car42 routing_Car42" vType="Car" speedFactor="0.92" vaporized=""/>
    <tripinfo id="Car28" depart="44.00" departLane="1_0_0" departPos="5.10" departSpeed="14.03" departDelay="0.00" arrival="183.00" arrivalLane="3_1_0" arrivalPos="750.00" arrivalSpeed="12.83" duration="139.00" routeLength="1503.93" waitingTime="13.00" waitingCount="1" stopTime="0.00" timeLoss="31.01" rerouteNo="0" devices="tripinfo_Car28 routing_Car28" vType="Car" speedFactor="1.01" vaporized=""/>
    <tripinfo id="Car38" depart="59.00" departLane="1_0_0" departPos="5.10" departSpeed="15.72" departDelay="0.00" arrival="184.00" arrivalLane="3_1_1" arrivalPos="750.00" arrivalSpeed="14.83" duration="125.00" routeLength="1503.93" waitingTime="1.00" waitingCount="1" stopTime="0.00" timeLoss="28.25" rerouteNo="0" devices="tripinfo_Car38 routing_Car38" vType="Car" speedFactor="1.13" vaporized=""/>
    <tripinfo id="Car34" depart="32.00" departLane="1_0_0" departPos="5.10" departSpeed="10.98" departDelay="1.00" arrival="185.00" arrivalLane="3_1_0" arrivalPos="750.00" arrivalSpeed="12.02" duration="153.00" routeLength="1503.93" waitingTime="18.00" waitingCount="1" stopTime="0.00" timeLoss="34.60" rerouteNo="0" devices="tripinfo_Car34 routing_Car34" vType="Car" speedFactor="0.93" vaporized=""/>
    <tripinfo id="Car40" depart="47.00" departLane="1_0_0" departPos="5.10" departSpeed="13.54" departDelay="0.00" arrival="187.00" arrivalLane="3_1_0" arrivalPos="750.00" arrivalSpeed="12.48" duration="140.00" routeLength="1503.93" waitingTime="9.00" waitingCount="1" stopTime="0.00" timeLoss="27.74" rerouteNo="0" devices="tripinfo_Car40 routing_Car40" vType="Car" speedFactor="0.97" vaporized=""/>
    <tripinfo id="Car37" depart="55.00" departLane="1_0_0" departPos="5.10" departSpeed="13.18" departDelay="0.00" arrival="191.00" arrivalLane="3_1_0" arrivalPos="750.00" arrivalSpeed="11.91" duration="136.00" routeLength="1503.93" waitingTime="1.00" waitingCount="1" stopTime="0.00" timeLoss="21.56" rerouteNo="0" devices="tripinfo_Car37 routing_Car37" vType="Car" speedFactor="0.95" vaporized=""/>
    <tripinfo id="Car3" depart="35.00" departLane="4_0_1" departPos="5.10" departSpeed="14.14" departDelay="0.00" arrival="195.00" arrivalLane="3_1_0" arrivalPos="750.00" arrivalSpeed="13.36" duration="160.00" routeLength="1515.70" waitingTime="43.00" waitingCount="1" stopTime="0.00" timeLoss="52.57" rerouteNo="0" devices="tripinfo_Car3 routing_Car3" vType="Car" speedFactor="1.02" vaporized=""/>
    <tripinfo id="Car1" depart="35.00" departLane="4_0_0" departPos="5.10" departSpeed="12.20" departDelay="0.00" arrival="204.00" arrivalLane="3_1_0" arrivalPos="750.00" arrivalSpeed="11.98" duration="169.00" routeLength="1515.70" waitingTime="33.00" waitingCount="1" stopTime="0.00" timeLoss="44.71" rerouteNo="0" devices="tripinfo_Car1 routing_Car1" vType="Car" speedFactor="0.88" vaporized=""/>
    <tripinfo id="Car2" depart="55.00" departLane="4_0_1" departPos="5.10" departSpeed="12.12" departDelay="0.00" arrival="207.00" arrivalLane="3_1_0" arrivalPos="750.00" arrivalSpeed="11.40" duration="152.00" routeLength="1515.70" waitingTime="15.00" waitingCount="1" stopTime="0.00" timeLoss="26.50" rerouteNo="0" devices="tripinfo_Car2 routing_Car2" vType="Car" speedFactor="0.87" vaporized=""/>
    <tripinfo id="Truck2" depart="89.00" departLane="2_0_1" departPos="7.20" departSpeed="14.03" departDelay="0.00" arrival="216.00" arrivalLane="3_1_0" arrivalPos="750.00" arrivalSpeed="13.62" duration="127.00" routeLength="1514.79" waitingTime="7.00" waitingCount="1" stopTime="0.00" timeLoss="17.70" rerouteNo="0" devices="tripinfo_Truck2 routing_Truck2" vType="Truck" speedFactor="1.01" vaporized=""/>
</tripinfos>
