<?xml version="1.0" encoding="UTF-8"?>

<!-- generated on 2023-10-30 01:37:25 by Eclipse SUMO GUI Version 1.18.0
<configuration xmlns:xsi="http://www.w3.org/2001/XMLSchema-instance" xsi:noNamespaceSchemaLocation="http://sumo.dlr.de/xsd/sumoConfiguration.xsd">

    <input>
        <net-file value="D:\Implementations\Mosas Studies\TrafficControlAlgorithms\Intersection\iot.net.xml"/>
        <route-files value="D:\Implementations\Mosas Studies\TrafficControlAlgorithms\Intersection\edited.rou.xml"/>
    </input>

    <output>
        <tripinfo-output value="statsST\tripinfo.trips.xml"/>
        <statistic-output value="statsST\statistics.stats.xml"/>
    </output>

    <time>
        <begin value="0"/>
    </time>

    <processing>
        <step-method.ballistic value="true"/>
        <time-to-teleport value="-1"/>
    </processing>

    <report>
        <verbose value="true"/>
        <no-step-log value="true"/>
    </report>

    <traci_server>
        <remote-port value="61057"/>
    </traci_server>

    <gui_only>
        <quit-on-end value="true"/>
        <start value="true"/>
    </gui_only>

</configuration>
-->

<tripinfos xmlns:xsi="http://www.w3.org/2001/XMLSchema-instance" xsi:noNamespaceSchemaLocation="http://sumo.dlr.de/xsd/tripinfo_file.xsd">
    <tripinfo id="Car44" depart="6.00" departLane="2_0_0" departPos="5.10" departSpeed="15.04" departDelay="0.00" arrival="118.00" arrivalLane="4_1_0" arrivalPos="750.00" arrivalSpeed="14.35" duration="112.00" routeLength="1503.93" waitingTime="2.00" waitingCount="1" stopTime="0.00" timeLoss="11.24" rerouteNo="0" devices="tripinfo_Car44 routing_Car44" vType="Car" speedFactor="1.08" vaporized=""/>
    <tripinfo id="Motorcycle2" depart="6.00" departLane="2_0_1" departPos="2.30" departSpeed="14.72" departDelay="0.00" arrival="122.00" arrivalLane="3_1_0" arrivalPos="750.00" arrivalSpeed="13.53" duration="116.00" routeLength="1519.69" waitingTime="0.00" waitingCount="0" stopTime="0.00" timeLoss="11.93" rerouteNo="0" devices="tripinfo_Motorcycle2 routing_Motorcycle2" vType="Motorcycle" speedFactor="1.06" vaporized=""/>
    <tripinfo id="Car19" depart="10.00" departLane="2_0_1" departPos="5.10" departSpeed="14.31" departDelay="0.00" arrival="123.00" arrivalLane="3_1_1" arrivalPos="750.00" arrivalSpeed="14.20" duration="113.00" routeLength="1516.89" waitingTime="0.00" waitingCount="0" stopTime="0.00" timeLoss="6.08" rerouteNo="0" devices="tripinfo_Car19 routing_Car19" vType="Car" speedFactor="1.03" vaporized=""/>
    <tripinfo id="Car15" depart="16.00" departLane="3_0_1" departPos="5.10" departSpeed="15.15" departDelay="0.00" arrival="136.00" arrivalLane="1_1_0" arrivalPos="750.00" arrivalSpeed="14.64" duration="120.00" routeLength="1516.89" waitingTime="9.00" waitingCount="1" stopTime="0.00" timeLoss="18.80" rerouteNo="0" devices="tripinfo_Car15 routing_Car15" vType="Car" speedFactor="1.09" vaporized=""/>
    <tripinfo id="Car4" depart="25.00" departLane="3_0_0" departPos="5.10" departSpeed="15.60" departDelay="0.00" arrival="136.00" arrivalLane="2_1_0" arrivalPos="750.00" arrivalSpeed="15.28" duration="111.00" routeLength="1503.93" waitingTime="0.00" waitingCount="0" stopTime="0.00" timeLoss="13.06" rerouteNo="0" devices="tripinfo_Car4 routing_Car4" vType="Car" speedFactor="1.12" vaporized=""/>
    <tripinfo id="Car20" depart="16.00" departLane="2_0_1" departPos="5.10" departSpeed="13.03" departDelay="0.00" arrival="140.00" arrivalLane="3_1_0" arrivalPos="750.00" arrivalSpeed="12.89" duration="124.00" routeLength="1516.89" waitingTime="0.00" waitingCount="0" stopTime="0.00" timeLoss="6.84" rerouteNo="0" devices="tripinfo_Car20 routing_Car20" vType="Car" speedFactor="0.94" vaporized=""/>
    <tripinfo id="Car17" depart="25.00" departLane="3_0_1" departPos="5.10" departSpeed="14.54" departDelay="0.00" arrival="140.00" arrivalLane="1_1_0" arrivalPos="750.00" arrivalSpeed="14.26" duration="115.00" routeLength="1516.89" waitingTime="0.00" waitingCount="0" stopTime="0.00" timeLoss="9.66" rerouteNo="0" devices="tripinfo_Car17 routing_Car17" vType="Car" speedFactor="1.05" vaporized=""/>
    <tripinfo id="Car5" depart="10.00" departLane="3_0_0" departPos="5.10" departSpeed="11.54" departDelay="0.00" arrival="151.00" arrivalLane="2_1_0" arrivalPos="750.00" arrivalSpeed="10.25" duration="141.00" routeLength="1503.93" waitingTime="0.00" waitingCount="0" stopTime="0.00" timeLoss="9.67" rerouteNo="0" devices="tripinfo_Car5 routing_Car5" vType="Car" speedFactor="0.83" vaporized=""/>
    <tripinfo id="Car23" depart="21.00" departLane="1_0_1" departPos="5.10" departSpeed="14.26" departDelay="0.00" arrival="155.00" arrivalLane="4_1_0" arrivalPos="750.00" arrivalSpeed="13.59" duration="134.00" routeLength="1516.89" waitingTime="18.00" waitingCount="1" stopTime="0.00" timeLoss="26.81" rerouteNo="0" devices="tripinfo_Car23 routing_Car23" vType="Car" speedFactor="1.03" vaporized=""/>
    <tripinfo id="Car35" depart="7.00" departLane="1_0_0" departPos="5.10" departSpeed="10.61" departDelay="1.00" arrival="156.00" arrivalLane="3_1_0" arrivalPos="750.00" arrivalSpeed="13.40" duration="149.00" routeLength="1503.93" waitingTime="31.00" waitingCount="1" stopTime="0.00" timeLoss="40.57" rerouteNo="0" devices="tripinfo_Car35 routing_Car35" vType="Car" speedFactor="1.01" vaporized=""/>
    <tripinfo id="Truck7" depart="10.00" departLane="1_0_0" departPos="7.20" departSpeed="14.21" departDelay="0.00" arrival="161.00" arrivalLane="3_1_0" arrivalPos="750.00" arrivalSpeed="13.91" duration="151.00" routeLength="1501.83" waitingTime="29.00" waitingCount="1" stopTime="0.00" timeLoss="43.92" rerouteNo="0" devices="tripinfo_Truck7 routing_Truck7" vType="Truck" speedFactor="1.02" vaporized=""/>
    <tripinfo id="Car32" depart="6.00" departLane="1_0_0" departPos="5.10" departSpeed="13.03" departDelay="0.00" arrival="164.00" arrivalLane="3_1_0" arrivalPos="750.00" arrivalSpeed="13.01" duration="158.00" routeLength="1503.93" waitingTime="29.00" waitingCount="1" stopTime="0.00" timeLoss="41.14" rerouteNo="0" devices="tripinfo_Car32 routing_Car32" vType="Car" speedFactor="0.94" vaporized=""/>
    <tripinfo id="Van5" depart="11.00" departLane="1_0_0" departPos="7.20" departSpeed="11.52" departDelay="0.00" arrival="169.00" arrivalLane="3_1_0" arrivalPos="750.00" arrivalSpeed="12.86" duration="158.00" routeLength="1501.83" waitingTime="27.00" waitingCount="1" stopTime="0.00" timeLoss="41.92" rerouteNo="0" devices="tripinfo_Van5 routing_Van5" vType="Truck" speedFactor="0.94" vaporized=""/>
    <tripinfo id="Truck3" depart="16.00" departLane="1_0_0" departPos="7.20" departSpeed="12.90" departDelay="0.00" arrival="173.00" arrivalLane="3_1_0" arrivalPos="750.00" arrivalSpeed="12.36" duration="157.00" routeLength="1501.83" waitingTime="26.00" waitingCount="1" stopTime="0.00" timeLoss="39.02" rerouteNo="0" devices="tripinfo_Truck3 routing_Truck3" vType="Truck" speedFactor="0.93" vaporized=""/>
    <tripinfo id="Car27" depart="31.00" departLane="1_0_0" departPos="5.10" departSpeed="13.77" departDelay="0.00" arrival="173.00" arrivalLane="3_1_1" arrivalPos="750.00" arrivalSpeed="13.60" duration="142.00" routeLength="1503.93" waitingTime="13.00" waitingCount="1" stopTime="0.00" timeLoss="31.04" rerouteNo="0" devices="tripinfo_Car27 routing_Car27" vType="Car" speedFactor="0.99" vaporized=""/>
    <tripinfo id="Car28" depart="44.00" departLane="1_0_0" departPos="5.10" departSpeed="14.03" departDelay="0.00" arrival="176.00" arrivalLane="3_1_0" arrivalPos="750.00" arrivalSpeed="13.93" duration="132.00" routeLength="1503.93" waitingTime="5.00" waitingCount="1" stopTime="0.00" timeLoss="23.97" rerouteNo="0" devices="tripinfo_Car28 routing_Car28" vType="Car" speedFactor="1.01" vaporized=""/>
    <tripinfo id="Car34" depart="32.00" departLane="1_0_0" departPos="5.10" departSpeed="10.98" departDelay="1.00" arrival="179.00" arrivalLane="3_1_0" arrivalPos="750.00" arrivalSpeed="11.93" duration="147.00" routeLength="1503.93" waitingTime="10.00" waitingCount="1" stopTime="0.00" timeLoss="29.20" rerouteNo="0" devices="tripinfo_Car34 routing_Car34" vType="Car" speedFactor="0.93" vaporized=""/>
    <tripinfo id="Car40" depart="47.00" departLane="1_0_0" departPos="5.10" departSpeed="13.54" departDelay="0.00" arrival="181.00" arrivalLane="3_1_0" arrivalPos="750.00" arrivalSpeed="12.55" duration="134.00" routeLength="1503.93" waitingTime="2.00" waitingCount="1" stopTime="0.00" timeLoss="21.76" rerouteNo="0" devices="tripinfo_Car40 routing_Car40" vType="Car" speedFactor="0.97" vaporized=""/>
    <tripinfo id="Car42" depart="55.00" departLane="1_0_1" departPos="5.10" departSpeed="12.74" departDelay="0.00" arrival="181.00" arrivalLane="2_1_0" arrivalPos="750.00" arrivalSpeed="12.39" duration="126.00" routeLength="1515.70" waitingTime="0.00" waitingCount="0" stopTime="0.00" timeLoss="6.40" rerouteNo="0" devices="tripinfo_Car42 routing_Car42" vType="Car" speedFactor="0.92" vaporized=""/>
    <tripinfo id="Car3" depart="35.00" departLane="4_0_1" departPos="5.10" departSpeed="14.14" departDelay="0.00" arrival="185.00" arrivalLane="3_1_1" arrivalPos="750.00" arrivalSpeed="13.77" duration="150.00" routeLength="1515.70" waitingTime="33.00" waitingCount="1" stopTime="0.00" timeLoss="42.47" rerouteNo="0" devices="tripinfo_Car3 routing_Car3" vType="Car" speedFactor="1.02" vaporized=""/>
    <tripinfo id="Car37" depart="55.00" departLane="1_0_0" departPos="5.10" departSpeed="13.18" departDelay="0.00" arrival="185.00" arrivalLane="3_1_0" arrivalPos="750.00" arrivalSpeed="12.14" duration="130.00" routeLength="1503.93" waitingTime="0.00" waitingCount="0" stopTime="0.00" timeLoss="15.12" rerouteNo="0" devices="tripinfo_Car37 routing_Car37" vType="Car" speedFactor="0.95" vaporized=""/>
    <tripinfo id="Car1" depart="35.00" departLane="4_0_0" departPos="5.10" departSpeed="12.20" departDelay="0.00" arrival="195.00" arrivalLane="3_1_0" arrivalPos="750.00" arrivalSpeed="11.35" duration="160.00" routeLength="1515.70" waitingTime="23.00" waitingCount="1" stopTime="0.00" timeLoss="34.97" rerouteNo="0" devices="tripinfo_Car1 routing_Car1" vType="Car" speedFactor="0.88" vaporized=""/>
    <tripinfo id="Car2" depart="55.00" departLane="4_0_1" departPos="5.10" departSpeed="12.12" departDelay="0.00" arrival="196.00" arrivalLane="3_1_1" arrivalPos="750.00" arrivalSpeed="11.44" duration="141.00" routeLength="1515.70" waitingTime="5.00" waitingCount="1" stopTime="0.00" timeLoss="15.85" rerouteNo="0" devices="tripinfo_Car2 routing_Car2" vType="Car" speedFactor="0.87" vaporized=""/>
    <tripinfo id="Truck2" depart="89.00" departLane="2_0_1" departPos="7.20" departSpeed="14.03" departDelay="0.00" arrival="202.00" arrivalLane="3_1_0" arrivalPos="750.00" arrivalSpeed="13.87" duration="113.00" routeLength="1514.79" waitingTime="0.00" waitingCount="0" stopTime="0.00" timeLoss="3.52" rerouteNo="0" devices="tripinfo_Truck2 routing_Truck2" vType="Truck" speedFactor="1.01" vaporized=""/>
    <tripinfo id="Car22" depart="51.00" departLane="2_0_1" departPos="5.10" departSpeed="11.47" departDelay="0.00" arrival="215.00" arrivalLane="1_1_0" arrivalPos="750.00" arrivalSpeed="11.29" duration="164.00" routeLength="1515.70" waitingTime="20.00" waitingCount="1" stopTime="0.00" timeLoss="31.23" rerouteNo="0" devices="tripinfo_Car22 routing_Car22" vType="Car" speedFactor="0.83" vaporized=""/>
    <tripinfo id="Car8" depart="36.00" departLane="3_0_1" departPos="5.10" departSpeed="9.92" departDelay="1.00" arrival="217.00" arrivalLane="1_1_1" arrivalPos="750.00" arrivalSpeed="15.62" duration="181.00" routeLength="1516.89" waitingTime="61.00" waitingCount="1" stopTime="0.00" timeLoss="85.57" rerouteNo="0" devices="tripinfo_Car8 routing_Car8" vType="Car" speedFactor="1.16" vaporized=""/>
    <tripinfo id="Van1" depart="82.00" departLane="3_0_1" departPos="7.20" departSpeed="14.96" departDelay="0.00" arrival="223.00" arrivalLane="1_1_1" arrivalPos="750.00" arrivalSpeed="14.89" duration="141.00" routeLength="1514.79" waitingTime="28.00" waitingCount="1" stopTime="0.00" timeLoss="39.23" rerouteNo="0" devices="tripinfo_Van1 routing_Van1" vType="Truck" speedFactor="1.08" vaporized=""/>
    <tripinfo id="Truck1" depart="88.00" departLane="3_0_0" departPos="7.20" departSpeed="13.85" departDelay="0.00" arrival="224.00" arrivalLane="4_1_1" arrivalPos="750.00" arrivalSpeed="13.82" duration="136.00" routeLength="1513.60" waitingTime="15.00" waitingCount="1" stopTime="0.00" timeLoss="26.63" rerouteNo="0" devices="tripinfo_Truck1 routing_Truck1" vType="Truck" speedFactor="1.00" vaporized=""/>
    <tripinfo id="Car6" depart="35.00" departLane="3_0_1" departPos="5.10" departSpeed="13.08" departDelay="0.00" arrival="225.00" arrivalLane="1_1_0" arrivalPos="750.00" arrivalSpeed="12.70" duration="190.00" routeLength="1516.89" waitingTime="62.00" waitingCount="1" stopTime="0.00" timeLoss="72.55" rerouteNo="0" devices="tripinfo_Car6 routing_Car6" vType="Car" speedFactor="0.94" vaporized=""/>
    <tripinfo id="Car18" depart="35.00" departLane="3_0_0" departPos="5.10" departSpeed="13.00" departDelay="0.00" arrival="225.00" arrivalLane="4_1_0" arrivalPos="750.00" arrivalSpeed="12.38" duration="190.00" routeLength="1515.70" waitingTime="62.00" waitingCount="1" stopTime="0.00" timeLoss="73.02" rerouteNo="0" devices="tripinfo_Car18 routing_Car18" vType="Car" speedFactor="0.94" vaporized=""/>
    <tripinfo id="Van2" depart="88.00" departLane="3_0_1" departPos="7.20" departSpeed="15.08" departDelay="0.00" arrival="225.00" arrivalLane="1_1_1" arrivalPos="750.00" arrivalSpeed="15.04" duration="137.00" routeLength="1514.79" waitingTime="24.00" waitingCount="1" stopTime="0.00" timeLoss="35.84" rerouteNo="0" devices="tripinfo_Van2 routing_Van2" vType="Truck" speedFactor="1.09" vaporized=""/>
    <tripinfo id="Car12" depart="101.00" departLane="3_0_1" departPos="5.10" departSpeed="15.31" departDelay="0.00" arrival="230.00" arrivalLane="1_1_1" arrivalPos="750.00" arrivalSpeed="14.13" duration="129.00" routeLength="1516.89" waitingTime="14.00" waitingCount="1" stopTime="0.00" timeLoss="29.21" rerouteNo="0" devices="tripinfo_Car12 routing_Car12" vType="Car" speedFactor="1.10" vaporized=""/>
    <tripinfo id="Car7" depart="51.00" departLane="3_0_1" departPos="5.10" departSpeed="12.36" departDelay="0.00" arrival="233.00" arrivalLane="1_1_0" arrivalPos="750.00" arrivalSpeed="11.35" duration="182.00" routeLength="1516.89" waitingTime="46.00" waitingCount="1" stopTime="0.00" timeLoss="57.64" rerouteNo="0" devices="tripinfo_Car7 routing_Car7" vType="Car" speedFactor="0.89" vaporized=""/>
    <tripinfo id="Car16" depart="92.00" departLane="3_0_1" departPos="5.10" departSpeed="13.52" departDelay="0.00" arrival="235.00" arrivalLane="1_1_0" arrivalPos="750.00" arrivalSpeed="12.26" duration="143.00" routeLength="1516.89" waitingTime="15.00" waitingCount="1" stopTime="0.00" timeLoss="29.49" rerouteNo="0" devices="tripinfo_Car16 routing_Car16" vType="Car" speedFactor="0.97" vaporized=""/>
    <tripinfo id="Car38" depart="59.00" departLane="1_0_0" departPos="5.10" departSpeed="15.72" departDelay="0.00" arrival="242.00" arrivalLane="3_1_0" arrivalPos="750.00" arrivalSpeed="15.14" duration="183.00" routeLength="1503.93" waitingTime="62.00" waitingCount="1" stopTime="0.00" timeLoss="86.76" rerouteNo="0" devices="tripinfo_Car38 routing_Car38" vType="Car" speedFactor="1.13" vaporized=""/>
    <tripinfo id="Car24" depart="132.00" departLane="1_0_1" departPos="5.10" departSpeed="15.17" departDelay="0.00" arrival="246.00" arrivalLane="4_1_0" arrivalPos="750.00" arrivalSpeed="15.03" duration="114.00" routeLength="1516.89" waitingTime="2.00" waitingCount="1" stopTime="0.00" timeLoss="12.50" rerouteNo="0" devices="tripinfo_Car24 routing_Car24" vType="Car" speedFactor="1.09" vaporized=""/>
    <tripinfo id="Car25" depart="140.00" departLane="1_0_1" departPos="5.10" departSpeed="16.24" departDelay="0.00" arrival="246.00" arrivalLane="4_1_1" arrivalPos="750.00" arrivalSpeed="15.90" duration="106.00" routeLength="1516.89" waitingTime="0.00" waitingCount="0" stopTime="0.00" timeLoss="11.86" rerouteNo="0" devices="tripinfo_Car25 routing_Car25" vType="Car" speedFactor="1.17" vaporized=""/>
    <tripinfo id="Truck6" depart="73.00" departLane="1_0_0" departPos="7.20" departSpeed="5.80" departDelay="0.00" arrival="248.00" arrivalLane="3_1_0" arrivalPos="750.00" arrivalSpeed="14.59" duration="175.00" routeLength="1501.83" waitingTime="60.00" waitingCount="1" stopTime="0.00" timeLoss="74.73" rerouteNo="0" devices="tripinfo_Truck6 routing_Truck6" vType="Truck" speedFactor="1.09" vaporized=""/>
    <tripinfo id="Van7" depart="134.00" departLane="1_0_1" departPos="7.20" departSpeed="14.50" departDelay="0.00" arrival="250.00" arrivalLane="2_1_0" arrivalPos="750.00" arrivalSpeed="14.40" duration="116.00" routeLength="1513.60" waitingTime="1.00" waitingCount="1" stopTime="0.00" timeLoss="10.83" rerouteNo="0" devices="tripinfo_Van7 routing_Van7" vType="Truck" speedFactor="1.04" vaporized=""/>
    <tripinfo id="Van6" depart="97.00" departLane="1_0_0" departPos="7.20" departSpeed="15.14" departDelay="0.00" arrival="256.00" arrivalLane="3_1_1" arrivalPos="750.00" arrivalSpeed="14.89" duration="159.00" routeLength="1501.83" waitingTime="44.00" waitingCount="1" stopTime="0.00" timeLoss="59.34" rerouteNo="0" devices="tripinfo_Van6 routing_Van6" vType="Truck" speedFactor="1.09" vaporized=""/>
    <tripinfo id="Car33" depart="82.00" departLane="1_0_0" departPos="5.10" departSpeed="13.96" departDelay="0.00" arrival="257.00" arrivalLane="3_1_0" arrivalPos="750.00" arrivalSpeed="12.96" duration="175.00" routeLength="1503.93" waitingTime="51.00" waitingCount="1" stopTime="0.00" timeLoss="66.25" rerouteNo="0" devices="tripinfo_Car33 routing_Car33" vType="Car" speedFactor="1.01" vaporized=""/>
    <tripinfo id="Motorcycle5" depart="72.00" departLane="1_0_0" departPos="2.30" departSpeed="12.94" departDelay="0.00" arrival="264.00" arrivalLane="3_1_0" arrivalPos="750.00" arrivalSpeed="12.18" duration="192.00" routeLength="1506.73" waitingTime="53.00" waitingCount="1" stopTime="0.00" timeLoss="75.04" rerouteNo="0" devices="tripinfo_Motorcycle5 routing_Motorcycle5" vType="Motorcycle" speedFactor="0.93" vaporized=""/>
    <tripinfo id="Van4" depart="123.00" departLane="1_0_0" departPos="7.20" departSpeed="14.10" departDelay="0.00" arrival="265.00" arrivalLane="3_1_1" arrivalPos="750.00" arrivalSpeed="13.70" duration="142.00" routeLength="1501.83" waitingTime="18.00" waitingCount="1" stopTime="0.00" timeLoss="33.93" rerouteNo="0" devices="tripinfo_Van4 routing_Van4" vType="Truck" speedFactor="1.02" vaporized=""/>
    <tripinfo id="Truck5" depart="134.00" departLane="1_0_0" departPos="7.20" departSpeed="14.19" departDelay="0.00" arrival="267.00" arrivalLane="3_1_1" arrivalPos="750.00" arrivalSpeed="13.61" duration="133.00" routeLength="1501.83" waitingTime="9.00" waitingCount="1" stopTime="0.00" timeLoss="26.08" rerouteNo="0" devices="tripinfo_Truck5 routing_Truck5" vType="Truck" speedFactor="1.02" vaporized=""/>
    <tripinfo id="Car30" depart="108.00" departLane="1_0_0" departPos="5.10" departSpeed="12.51" departDelay="0.00" arrival="270.00" arrivalLane="3_1_0" arrivalPos="750.00" arrivalSpeed="11.71" duration="162.00" routeLength="1503.93" waitingTime="23.00" waitingCount="1" stopTime="0.00" timeLoss="40.99" rerouteNo="0" devices="tripinfo_Car30 routing_Car30" vType="Car" speedFactor="0.90" vaporized=""/>
    <tripinfo id="Car36" depart="135.00" departLane="1_0_0" departPos="5.10" departSpeed="11.90" departDelay="1.00" arrival="272.00" arrivalLane="3_1_1" arrivalPos="750.00" arrivalSpeed="13.43" duration="137.00" routeLength="1503.93" waitingTime="8.00" waitingCount="1" stopTime="0.00" timeLoss="27.01" rerouteNo="0" devices="tripinfo_Car36 routing_Car36" vType="Car" speedFactor="1.00" vaporized=""/>
    <tripinfo id="Car0" depart="129.00" departLane="4_0_0" departPos="5.10" departSpeed="13.29" departDelay="0.00" arrival="281.00" arrivalLane="3_1_0" arrivalPos="750.00" arrivalSpeed="13.19" duration="152.00" routeLength="1515.70" waitingTime="27.00" waitingCount="1" stopTime="0.00" timeLoss="37.60" rerouteNo="0" devices="tripinfo_Car0 routing_Car0" vType="Car" speedFactor="0.96" vaporized=""/>
    <tripinfo id="Truck8" depart="132.00" departLane="2_0_0" departPos="7.20" departSpeed="14.15" departDelay="0.00" arrival="295.00" arrivalLane="4_1_0" arrivalPos="750.00" arrivalSpeed="13.95" duration="163.00" routeLength="1501.83" waitingTime="46.00" waitingCount="1" stopTime="0.00" timeLoss="55.54" rerouteNo="0" devices="tripinfo_Truck8 routing_Truck8" vType="Truck" speedFactor="1.02" vaporized=""/>
    <tripinfo id="Car21" depart="135.00" departLane="2_0_1" departPos="5.10" departSpeed="12.51" departDelay="0.00" arrival="302.00" arrivalLane="1_1_0" arrivalPos="750.00" arrivalSpeed="12.22" duration="167.00" routeLength="1515.70" waitingTime="33.00" waitingCount="1" stopTime="0.00" timeLoss="45.15" rerouteNo="0" devices="tripinfo_Car21 routing_Car21" vType="Car" speedFactor="0.90" vaporized=""/>
    <tripinfo id="Motorcycle4" depart="196.00" departLane="2_0_1" departPos="2.30" departSpeed="15.87" departDelay="0.00" arrival="304.00" arrivalLane="3_1_0" arrivalPos="750.00" arrivalSpeed="12.94" duration="108.00" routeLength="1519.69" waitingTime="0.00" waitingCount="0" stopTime="0.00" timeLoss="11.24" rerouteNo="0" devices="tripinfo_Motorcycle4 routing_Motorcycle4" vType="Motorcycle" speedFactor="1.14" vaporized=""/>
    <tripinfo id="Motorcycle1" depart="183.00" departLane="2_0_1" departPos="2.30" departSpeed="13.83" departDelay="0.00" arrival="309.00" arrivalLane="3_1_0" arrivalPos="750.00" arrivalSpeed="12.93" duration="126.00" routeLength="1519.69" waitingTime="0.00" waitingCount="0" stopTime="0.00" timeLoss="15.11" rerouteNo="0" devices="tripinfo_Motorcycle1 routing_Motorcycle1" vType="Motorcycle" speedFactor="1.00" vaporized=""/>
    <tripinfo id="Motorcycle3" depart="139.00" departLane="2_0_1" departPos="2.30" departSpeed="11.81" departDelay="0.00" arrival="315.00" arrivalLane="3_1_0" arrivalPos="750.00" arrivalSpeed="10.71" duration="176.00" routeLength="1519.69" waitingTime="22.00" waitingCount="1" stopTime="0.00" timeLoss="46.00" rerouteNo="0" devices="tripinfo_Motorcycle3 routing_Motorcycle3" vType="Motorcycle" speedFactor="0.85" vaporized=""/>
    <tripinfo id="Car9" depart="161.00" departLane="3_0_1" departPos="5.10" departSpeed="14.12" departDelay="0.00" arrival="317.00" arrivalLane="1_1_0" arrivalPos="750.00" arrivalSpeed="13.86" duration="156.00" routeLength="1516.89" waitingTime="34.00" waitingCount="1" stopTime="0.00" timeLoss="47.09" rerouteNo="0" devices="tripinfo_Car9 routing_Car9" vType="Car" speedFactor="1.02" vaporized=""/>
    <tripinfo id="Truck0" depart="137.00" departLane="3_0_1" departPos="7.20" departSpeed="13.04" departDelay="0.00" arrival="318.00" arrivalLane="1_1_0" arrivalPos="750.00" arrivalSpeed="12.96" duration="181.00" routeLength="1514.79" waitingTime="53.00" waitingCount="1" stopTime="0.00" timeLoss="63.74" rerouteNo="0" devices="tripinfo_Truck0 routing_Truck0" vType="Truck" speedFactor="0.94" vaporized=""/>
    <tripinfo id="Van0" depart="172.00" departLane="3_0_1" departPos="7.20" departSpeed="14.56" departDelay="0.00" arrival="318.00" arrivalLane="1_1_1" arrivalPos="750.00" arrivalSpeed="14.33" duration="146.00" routeLength="1514.79" waitingTime="28.00" waitingCount="1" stopTime="0.00" timeLoss="41.23" rerouteNo="0" devices="tripinfo_Van0 routing_Van0" vType="Truck" speedFactor="1.05" vaporized=""/>
    <tripinfo id="Car10" depart="202.00" departLane="3_0_1" departPos="5.10" departSpeed="15.04" departDelay="0.00" arrival="320.00" arrivalLane="1_1_1" arrivalPos="750.00" arrivalSpeed="14.31" duration="118.00" routeLength="1516.89" waitingTime="1.00" waitingCount="1" stopTime="0.00" timeLoss="16.20" rerouteNo="0" devices="tripinfo_Car10 routing_Car10" vType="Car" speedFactor="1.08" vaporized=""/>
    <tripinfo id="Motorcycle0" depart="140.00" departLane="3_0_0" departPos="2.30" departSpeed="11.87" departDelay="0.00" arrival="328.00" arrivalLane="2_1_0" arrivalPos="750.00" arrivalSpeed="10.39" duration="188.00" routeLength="1506.73" waitingTime="36.00" waitingCount="1" stopTime="0.00" timeLoss="59.55" rerouteNo="0" devices="tripinfo_Motorcycle0 routing_Motorcycle0" vType="Motorcycle" speedFactor="0.85" vaporized=""/>
    <tripinfo id="Car13" depart="184.00" departLane="3_0_1" departPos="5.10" departSpeed="12.49" departDelay="0.00" arrival="329.00" arrivalLane="1_1_0" arrivalPos="750.00" arrivalSpeed="12.32" duration="145.00" routeLength="1516.89" waitingTime="8.00" waitingCount="1" stopTime="0.00" timeLoss="22.21" rerouteNo="0" devices="tripinfo_Car13 routing_Car13" vType="Car" speedFactor="0.90" vaporized=""/>
    <tripinfo id="Truck4" depart="172.00" departLane="1_0_0" departPos="7.20" departSpeed="13.91" departDelay="0.00" arrival="331.00" arrivalLane="3_1_0" arrivalPos="750.00" arrivalSpeed="13.48" duration="159.00" routeLength="1501.83" waitingTime="39.00" waitingCount="1" stopTime="0.00" timeLoss="50.15" rerouteNo="0" devices="tripinfo_Truck4 routing_Truck4" vType="Truck" speedFactor="1.00" vaporized=""/>
    <tripinfo id="Car29" depart="197.00" departLane="1_0_0" departPos="5.10" departSpeed="14.22" departDelay="0.00" arrival="332.00" arrivalLane="3_1_1" arrivalPos="750.00" arrivalSpeed="13.53" duration="135.00" routeLength="1503.93" waitingTime="15.00" waitingCount="1" stopTime="0.00" timeLoss="28.32" rerouteNo="0" devices="tripinfo_Car29 routing_Car29" vType="Car" speedFactor="1.02" vaporized=""/>
    <tripinfo id="Car26" depart="198.00" departLane="1_0_0" departPos="5.10" departSpeed="11.74" departDelay="1.00" arrival="338.00" arrivalLane="3_1_0" arrivalPos="750.00" arrivalSpeed="13.00" duration="140.00" routeLength="1503.93" waitingTime="13.00" waitingCount="1" stopTime="0.00" timeLoss="27.08" rerouteNo="0" devices="tripinfo_Car26 routing_Car26" vType="Car" speedFactor="0.97" vaporized=""/>
    <tripinfo id="Car11" depart="214.00" departLane="3_0_1" departPos="5.10" departSpeed="15.55" departDelay="0.00" arrival="345.00" arrivalLane="1_1_0" arrivalPos="750.00" arrivalSpeed="15.11" duration="131.00" routeLength="1516.89" waitingTime="21.00" waitingCount="1" stopTime="0.00" timeLoss="32.17" rerouteNo="0" devices="tripinfo_Car11 routing_Car11" vType="Car" speedFactor="1.12" vaporized=""/>
    <tripinfo id="Car39" depart="271.00" departLane="1_0_0" departPos="5.10" departSpeed="14.11" departDelay="0.00" arrival="390.00" arrivalLane="3_1_0" arrivalPos="750.00" arrivalSpeed="12.82" duration="119.00" routeLength="1503.93" waitingTime="1.00" waitingCount="1" stopTime="0.00" timeLoss="11.25" rerouteNo="0" devices="tripinfo_Car39 routing_Car39" vType="Car" speedFactor="1.02" vaporized=""/>
    <tripinfo id="Car31" depart="281.00" departLane="1_0_0" departPos="5.10" departSpeed="13.71" departDelay="0.00" arrival="400.00" arrivalLane="3_1_0" arrivalPos="750.00" arrivalSpeed="13.51" duration="119.00" routeLength="1503.93" waitingTime="0.00" waitingCount="0" stopTime="0.00" timeLoss="7.50" rerouteNo="0" devices="tripinfo_Car31 routing_Car31" vType="Car" speedFactor="0.99" vaporized=""/>
    <tripinfo id="Car41" depart="281.00" departLane="1_0_1" departPos="5.10" departSpeed="13.02" departDelay="0.00" arrival="404.00" arrivalLane="2_1_0" arrivalPos="750.00" arrivalSpeed="12.03" duration="123.00" routeLength="1515.70" waitingTime="0.00" waitingCount="0" stopTime="0.00" timeLoss="6.21" rerouteNo="0" devices="tripinfo_Car41 routing_Car41" vType="Car" speedFactor="0.94" vaporized=""/>
    <tripinfo id="Van3" depart="284.00" departLane="2_0_1" departPos="7.20" departSpeed="13.30" departDelay="0.00" arrival="414.00" arrivalLane="1_1_0" arrivalPos="750.00" arrivalSpeed="13.11" duration="130.00" routeLength="1513.60" waitingTime="6.00" waitingCount="1" stopTime="0.00" timeLoss="15.86" rerouteNo="0" devices="tripinfo_Van3 routing_Van3" vType="Truck" speedFactor="0.96" vaporized=""/>
    <tripinfo id="Truck9" depart="284.00" departLane="2_0_0" departPos="7.20" departSpeed="13.07" departDelay="0.00" arrival="415.00" arrivalLane="4_1_0" arrivalPos="750.00" arrivalSpeed="12.64" duration="131.00" routeLength="1501.83" waitingTime="4.00" waitingCount="1" stopTime="0.00" timeLoss="15.01" rerouteNo="0" devices="tripinfo_Truck9 routing_Truck9" vType="Truck" speedFactor="0.94" vaporized=""/>
    <tripinfo id="Car48" depart="310.00" departLane="3_0_0" departPos="5.10" departSpeed="14.21" departDelay="0.00" arrival="425.00" arrivalLane="2_1_0" arrivalPos="750.00" arrivalSpeed="13.57" duration="115.00" routeLength="1503.93" waitingTime="0.00" waitingCount="0" stopTime="0.00" timeLoss="7.37" rerouteNo="0" devices="tripinfo_Car48 routing_Car48" vType="Car" speedFactor="1.02" vaporized=""/>
    <tripinfo id="Truck12" depart="321.00" departLane="3_0_1" departPos="7.20" departSpeed="14.28" departDelay="0.00" arrival="432.00" arrivalLane="1_1_1" arrivalPos="750.00" arrivalSpeed="13.64" duration="111.00" routeLength="1514.79" waitingTime="0.00" waitingCount="0" stopTime="0.00" timeLoss="3.72" rerouteNo="0" devices="tripinfo_Truck12 routing_Truck12" vType="Truck" speedFactor="1.03" vaporized=""/>
    <tripinfo id="Car14" depart="284.00" departLane="3_0_1" departPos="5.10" departSpeed="12.60" departDelay="0.00" arrival="433.00" arrivalLane="1_1_0" arrivalPos="750.00" arrivalSpeed="11.33" duration="149.00" routeLength="1516.89" waitingTime="18.00" waitingCount="1" stopTime="0.00" timeLoss="27.74" rerouteNo="0" devices="tripinfo_Car14 routing_Car14" vType="Car" speedFactor="0.91" vaporized=""/>
    <tripinfo id="Car43" depart="295.00" departLane="1_0_0" departPos="5.10" departSpeed="14.45" departDelay="0.00" arrival="442.00" arrivalLane="2_1_0" arrivalPos="750.00" arrivalSpeed="14.33" duration="147.00" routeLength="1515.70" waitingTime="32.00" waitingCount="1" stopTime="0.00" timeLoss="41.86" rerouteNo="0" devices="tripinfo_Car43 routing_Car43" vType="Car" speedFactor="1.04" vaporized=""/>