<?xml version="1.0" encoding="UTF-8"?>

<!-- generated on 2023-10-14 23:19:59 by Eclipse SUMO GUI Version 1.18.0
<configuration xmlns:xsi="http://www.w3.org/2001/XMLSchema-instance" xsi:noNamespaceSchemaLocation="http://sumo.dlr.de/xsd/sumoConfiguration.xsd">

    <input>
        <net-file value="D:\Implementations\Mosas Studies\TrafficControlAlgorithms\Intersection\iot.net.xml"/>
        <route-files value="D:\Implementations\Mosas Studies\TrafficControlAlgorithms\Intersection\edited.rou.xml"/>
    </input>

    <output>
        <tripinfo-output value="stats\tripinfo.trips.xml"/>
        <statistic-output value="stats\statistics.stats.xml"/>
    </output>

    <time>
        <begin value="0"/>
    </time>

    <processing>
        <step-method.ballistic value="true"/>
        <time-to-teleport value="-1"/>
    </processing>

    <report>
        <verbose value="true"/>
        <no-step-log value="true"/>
    </report>

    <traci_server>
        <remote-port value="63475"/>
    </traci_server>

    <gui_only>
        <quit-on-end value="true"/>
        <start value="true"/>
    </gui_only>

</configuration>
-->

<tripinfos xmlns:xsi="http://www.w3.org/2001/XMLSchema-instance" xsi:noNamespaceSchemaLocation="http://sumo.dlr.de/xsd/tripinfo_file.xsd">
</tripinfos>
