<?xml version="1.0" encoding="UTF-8"?>

<!-- generated on 2023-10-15 21:08:19 by Eclipse SUMO GUI Version 1.18.0
<configuration xmlns:xsi="http://www.w3.org/2001/XMLSchema-instance" xsi:noNamespaceSchemaLocation="http://sumo.dlr.de/xsd/sumoConfiguration.xsd">

    <input>
        <net-file value="D:\Implementations\Mosas Studies\TrafficControlAlgorithms\Intersection\iot.net.xml"/>
        <route-files value="D:\Implementations\Mosas Studies\TrafficControlAlgorithms\Intersection\edited.rou.xml"/>
    </input>

    <output>
        <tripinfo-output value="stats\tripinfo.trips.xml"/>
        <statistic-output value="stats\statistics.stats.xml"/>
    </output>

    <time>
        <begin value="0"/>
    </time>

    <processing>
        <step-method.ballistic value="true"/>
        <time-to-teleport value="-1"/>
    </processing>

    <report>
        <verbose value="true"/>
        <no-step-log value="true"/>
    </report>

    <traci_server>
        <remote-port value="61854"/>
    </traci_server>

    <gui_only>
        <quit-on-end value="true"/>
        <start value="true"/>
    </gui_only>

</configuration>
-->

<tripinfos xmlns:xsi="http://www.w3.org/2001/XMLSchema-instance" xsi:noNamespaceSchemaLocation="http://sumo.dlr.de/xsd/tripinfo_file.xsd">
    <tripinfo id="Car44" depart="6.00" departLane="2_0_0" departPos="5.10" departSpeed="15.04" departDelay="0.00" arrival="119.00" arrivalLane="4_1_0" arrivalPos="750.00" arrivalSpeed="14.77" duration="113.00" routeLength="1503.93" waitingTime="2.00" waitingCount="2" stopTime="0.00" timeLoss="11.89" rerouteNo="0" devices="tripinfo_Car44 routing_Car44" vType="Car" speedFactor="1.08" vaporized=""/>
    <tripinfo id="Motorcycle2" depart="6.00" departLane="2_0_1" departPos="2.30" departSpeed="14.72" departDelay="0.00" arrival="124.00" arrivalLane="3_1_0" arrivalPos="750.00" arrivalSpeed="13.82" duration="118.00" routeLength="1519.69" waitingTime="1.00" waitingCount="1" stopTime="0.00" timeLoss="13.44" rerouteNo="0" devices="tripinfo_Motorcycle2 routing_Motorcycle2" vType="Motorcycle" speedFactor="1.06" vaporized=""/>
    <tripinfo id="Car35" depart="7.00" departLane="1_0_0" departPos="5.10" departSpeed="10.61" departDelay="1.00" arrival="125.00" arrivalLane="3_1_1" arrivalPos="750.00" arrivalSpeed="13.14" duration="118.00" routeLength="1503.93" waitingTime="0.00" waitingCount="0" stopTime="0.00" timeLoss="9.78" rerouteNo="0" devices="tripinfo_Car35 routing_Car35" vType="Car" speedFactor="1.01" vaporized=""/>
    <tripinfo id="Car19" depart="10.00" departLane="2_0_1" departPos="5.10" departSpeed="14.31" departDelay="0.00" arrival="129.00" arrivalLane="3_1_0" arrivalPos="750.00" arrivalSpeed="13.20" duration="119.00" routeLength="1516.89" waitingTime="1.00" waitingCount="1" stopTime="0.00" timeLoss="11.80" rerouteNo="0" devices="tripinfo_Car19 routing_Car19" vType="Car" speedFactor="1.03" vaporized=""/>
    <tripinfo id="Car23" depart="21.00" departLane="1_0_1" departPos="5.10" departSpeed="14.26" departDelay="0.00" arrival="133.00" arrivalLane="4_1_0" arrivalPos="750.00" arrivalSpeed="13.59" duration="112.00" routeLength="1516.89" waitingTime="0.00" waitingCount="0" stopTime="0.00" timeLoss="4.94" rerouteNo="0" devices="tripinfo_Car23 routing_Car23" vType="Car" speedFactor="1.03" vaporized=""/>
    <tripinfo id="Car32" depart="6.00" departLane="1_0_0" departPos="5.10" departSpeed="13.03" departDelay="0.00" arrival="139.00" arrivalLane="3_1_0" arrivalPos="750.00" arrivalSpeed="13.03" duration="133.00" routeLength="1503.93" waitingTime="4.00" waitingCount="2" stopTime="0.00" timeLoss="15.94" rerouteNo="0" devices="tripinfo_Car32 routing_Car32" vType="Car" speedFactor="0.94" vaporized=""/>
    <tripinfo id="Van5" depart="11.00" departLane="1_0_0" departPos="7.20" departSpeed="11.52" departDelay="0.00" arrival="139.00" arrivalLane="3_1_1" arrivalPos="750.00" arrivalSpeed="12.58" duration="128.00" routeLength="1492.80" waitingTime="3.00" waitingCount="2" stopTime="0.00" timeLoss="15.03" rerouteNo="0" devices="tripinfo_Van5 routing_Van5" vType="Truck" speedFactor="0.94" vaporized=""/>
    <tripinfo id="Car20" depart="16.00" departLane="2_0_1" departPos="5.10" departSpeed="13.03" departDelay="0.00" arrival="144.00" arrivalLane="3_1_0" arrivalPos="750.00" arrivalSpeed="12.03" duration="128.00" routeLength="1516.89" waitingTime="1.00" waitingCount="1" stopTime="0.00" timeLoss="10.38" rerouteNo="0" devices="tripinfo_Car20 routing_Car20" vType="Car" speedFactor="0.94" vaporized=""/>
    <tripinfo id="Truck7" depart="10.00" departLane="1_0_0" departPos="7.20" departSpeed="14.21" departDelay="0.00" arrival="146.00" arrivalLane="3_1_1" arrivalPos="750.00" arrivalSpeed="13.82" duration="136.00" routeLength="1501.83" waitingTime="7.00" waitingCount="2" stopTime="0.00" timeLoss="28.89" rerouteNo="0" devices="tripinfo_Truck7 routing_Truck7" vType="Truck" speedFactor="1.02" vaporized=""/>
    <tripinfo id="Truck3" depart="16.00" departLane="1_0_0" departPos="7.20" departSpeed="12.90" departDelay="0.00" arrival="153.00" arrivalLane="3_1_0" arrivalPos="750.00" arrivalSpeed="12.40" duration="137.00" routeLength="1501.83" waitingTime="3.00" waitingCount="2" stopTime="0.00" timeLoss="18.98" rerouteNo="0" devices="tripinfo_Truck3 routing_Truck3" vType="Truck" speedFactor="0.93" vaporized=""/>
    <tripinfo id="Car27" depart="31.00" departLane="1_0_0" departPos="5.10" departSpeed="13.77" departDelay="0.00" arrival="153.00" arrivalLane="3_1_1" arrivalPos="750.00" arrivalSpeed="13.58" duration="122.00" routeLength="1503.93" waitingTime="0.00" waitingCount="0" stopTime="0.00" timeLoss="11.73" rerouteNo="0" devices="tripinfo_Car27 routing_Car27" vType="Car" speedFactor="0.99" vaporized=""/>
    <tripinfo id="Car28" depart="44.00" departLane="1_0_0" departPos="5.10" departSpeed="14.03" departDelay="0.00" arrival="159.00" arrivalLane="3_1_1" arrivalPos="750.00" arrivalSpeed="12.74" duration="115.00" routeLength="1503.93" waitingTime="0.00" waitingCount="0" stopTime="0.00" timeLoss="7.29" rerouteNo="0" devices="tripinfo_Car28 routing_Car28" vType="Car" speedFactor="1.01" vaporized=""/>
    <tripinfo id="Car34" depart="32.00" departLane="1_0_0" departPos="5.10" departSpeed="10.98" departDelay="1.00" arrival="160.00" arrivalLane="3_1_0" arrivalPos="750.00" arrivalSpeed="12.33" duration="128.00" routeLength="1503.93" waitingTime="0.00" waitingCount="0" stopTime="0.00" timeLoss="9.65" rerouteNo="0" devices="tripinfo_Car34 routing_Car34" vType="Car" speedFactor="0.93" vaporized=""/>
    <tripinfo id="Car40" depart="47.00" departLane="1_0_0" departPos="5.10" departSpeed="13.54" departDelay="0.00" arrival="167.00" arrivalLane="3_1_0" arrivalPos="750.00" arrivalSpeed="12.53" duration="120.00" routeLength="1503.93" waitingTime="0.00" waitingCount="0" stopTime="0.00" timeLoss="7.74" rerouteNo="0" devices="tripinfo_Car40 routing_Car40" vType="Car" speedFactor="0.97" vaporized=""/>
    <tripinfo id="Car38" depart="59.00" departLane="1_0_0" departPos="5.10" departSpeed="15.72" departDelay="0.00" arrival="172.00" arrivalLane="3_1_0" arrivalPos="750.00" arrivalSpeed="14.61" duration="113.00" routeLength="1503.93" waitingTime="0.00" waitingCount="0" stopTime="0.00" timeLoss="15.53" rerouteNo="0" devices="tripinfo_Car38 routing_Car38" vType="Car" speedFactor="1.13" vaporized=""/>
    <tripinfo id="Car37" depart="55.00" departLane="1_0_0" departPos="5.10" departSpeed="13.18" departDelay="0.00" arrival="178.00" arrivalLane="3_1_0" arrivalPos="750.00" arrivalSpeed="12.36" duration="123.00" routeLength="1503.93" waitingTime="0.00" waitingCount="0" stopTime="0.00" timeLoss="8.39" rerouteNo="0" devices="tripinfo_Car37 routing_Car37" vType="Car" speedFactor="0.95" vaporized=""/>
    <tripinfo id="Car3" depart="35.00" departLane="4_0_1" departPos="5.10" departSpeed="14.14" departDelay="0.00" arrival="180.00" arrivalLane="3_1_0" arrivalPos="750.00" arrivalSpeed="13.59" duration="145.00" routeLength="1515.70" waitingTime="28.00" waitingCount="1" stopTime="0.00" timeLoss="37.70" rerouteNo="0" devices="tripinfo_Car3 routing_Car3" vType="Car" speedFactor="1.02" vaporized=""/>
    <tripinfo id="Car42" depart="55.00" departLane="1_0_1" departPos="5.10" departSpeed="12.74" departDelay="0.00" arrival="181.00" arrivalLane="2_1_0" arrivalPos="750.00" arrivalSpeed="12.49" duration="126.00" routeLength="1515.70" waitingTime="0.00" waitingCount="0" stopTime="0.00" timeLoss="6.39" rerouteNo="0" devices="tripinfo_Car42 routing_Car42" vType="Car" speedFactor="0.92" vaporized=""/>
    <tripinfo id="Truck6" depart="73.00" departLane="1_0_0" departPos="7.20" departSpeed="4.79" departDelay="0.00" arrival="184.00" arrivalLane="3_1_1" arrivalPos="750.00" arrivalSpeed="14.51" duration="111.00" routeLength="1501.83" waitingTime="0.00" waitingCount="0" stopTime="0.00" timeLoss="9.97" rerouteNo="0" devices="tripinfo_Truck6 routing_Truck6" vType="Truck" speedFactor="1.09" vaporized=""/>
    <tripinfo id="Car1" depart="35.00" departLane="4_0_0" departPos="5.10" departSpeed="12.20" departDelay="0.00" arrival="189.00" arrivalLane="3_1_0" arrivalPos="750.00" arrivalSpeed="11.93" duration="154.00" routeLength="1515.70" waitingTime="18.00" waitingCount="1" stopTime="0.00" timeLoss="29.20" rerouteNo="0" devices="tripinfo_Car1 routing_Car1" vType="Car" speedFactor="0.88" vaporized=""/>
    <tripinfo id="Car33" depart="82.00" departLane="1_0_0" departPos="5.10" departSpeed="13.96" departDelay="0.00" arrival="201.00" arrivalLane="3_1_0" arrivalPos="750.00" arrivalSpeed="13.65" duration="119.00" routeLength="1503.93" waitingTime="0.00" waitingCount="0" stopTime="0.00" timeLoss="10.34" rerouteNo="0" devices="tripinfo_Car33 routing_Car33" vType="Car" speedFactor="1.01" vaporized=""/>
    <tripinfo id="Car2" depart="55.00" departLane="4_0_1" departPos="5.10" departSpeed="12.12" departDelay="0.00" arrival="204.00" arrivalLane="3_1_0" arrivalPos="750.00" arrivalSpeed="11.77" duration="149.00" routeLength="1515.70" waitingTime="10.00" waitingCount="1" stopTime="0.00" timeLoss="23.62" rerouteNo="0" devices="tripinfo_Car2 routing_Car2" vType="Car" speedFactor="0.87" vaporized=""/>
    <tripinfo id="Motorcycle5" depart="72.00" departLane="1_0_0" departPos="2.30" departSpeed="12.94" departDelay="0.00" arrival="208.00" arrivalLane="3_1_0" arrivalPos="750.00" arrivalSpeed="10.53" duration="136.00" routeLength="1506.73" waitingTime="0.00" waitingCount="0" stopTime="0.00" timeLoss="18.18" rerouteNo="0" devices="tripinfo_Motorcycle5 routing_Motorcycle5" vType="Motorcycle" speedFactor="0.93" vaporized=""/>
    <tripinfo id="Truck2" depart="89.00" departLane="2_0_1" departPos="7.20" departSpeed="14.03" departDelay="0.00" arrival="211.00" arrivalLane="3_1_0" arrivalPos="750.00" arrivalSpeed="13.58" duration="122.00" routeLength="1514.79" waitingTime="2.00" waitingCount="2" stopTime="0.00" timeLoss="13.49" rerouteNo="0" devices="tripinfo_Truck2 routing_Truck2" vType="Truck" speedFactor="1.01" vaporized=""/>
    <tripinfo id="Van6" depart="97.00" departLane="1_0_0" departPos="7.20" departSpeed="15.14" departDelay="0.00" arrival="215.00" arrivalLane="3_1_0" arrivalPos="750.00" arrivalSpeed="14.98" duration="118.00" routeLength="1501.83" waitingTime="7.00" waitingCount="1" stopTime="0.00" timeLoss="17.31" rerouteNo="0" devices="tripinfo_Van6 routing_Van6" vType="Truck" speedFactor="1.09" vaporized=""/>
    <tripinfo id="Car15" depart="16.00" departLane="3_0_1" departPos="5.10" departSpeed="15.15" departDelay="0.00" arrival="221.00" arrivalLane="1_1_1" arrivalPos="750.00" arrivalSpeed="15.02" duration="205.00" routeLength="1516.89" waitingTime="94.00" waitingCount="2" stopTime="0.00" timeLoss="104.80" rerouteNo="0" devices="tripinfo_Car15 routing_Car15" vType="Car" speedFactor="1.09" vaporized=""/>
    <tripinfo id="Car22" depart="51.00" departLane="2_0_1" departPos="5.10" departSpeed="11.47" departDelay="0.00" arrival="221.00" arrivalLane="1_1_0" arrivalPos="750.00" arrivalSpeed="11.31" duration="170.00" routeLength="1515.70" waitingTime="25.00" waitingCount="2" stopTime="0.00" timeLoss="38.42" rerouteNo="0" devices="tripinfo_Car22 routing_Car22" vType="Car" speedFactor="0.83" vaporized=""/>
    <tripinfo id="Van4" depart="123.00" departLane="1_0_0" departPos="7.20" departSpeed="14.10" departDelay="0.00" arrival="236.00" arrivalLane="3_1_0" arrivalPos="750.00" arrivalSpeed="13.51" duration="113.00" routeLength="1501.83" waitingTime="0.00" waitingCount="0" stopTime="0.00" timeLoss="5.52" rerouteNo="0" devices="tripinfo_Van4 routing_Van4" vType="Truck" speedFactor="1.02" vaporized=""/>
    <tripinfo id="Car5" depart="10.00" departLane="3_0_0" departPos="5.10" departSpeed="11.54" departDelay="0.00" arrival="238.00" arrivalLane="2_1_0" arrivalPos="750.00" arrivalSpeed="10.47" duration="228.00" routeLength="1503.93" waitingTime="84.00" waitingCount="2" stopTime="0.00" timeLoss="96.61" rerouteNo="0" devices="tripinfo_Car5 routing_Car5" vType="Car" speedFactor="0.83" vaporized=""/>
    <tripinfo id="Car17" depart="25.00" departLane="3_0_1" departPos="5.10" departSpeed="14.54" departDelay="0.00" arrival="238.00" arrivalLane="1_1_0" arrivalPos="750.00" arrivalSpeed="13.98" duration="213.00" routeLength="1516.89" waitingTime="94.00" waitingCount="3" stopTime="0.00" timeLoss="107.86" rerouteNo="0" devices="tripinfo_Car17 routing_Car17" vType="Car" speedFactor="1.05" vaporized=""/>
    <tripinfo id="Car30" depart="108.00" departLane="1_0_0" departPos="5.10" departSpeed="12.51" departDelay="0.00" arrival="238.00" arrivalLane="3_1_0" arrivalPos="750.00" arrivalSpeed="12.18" duration="130.00" routeLength="1503.93" waitingTime="0.00" waitingCount="0" stopTime="0.00" timeLoss="8.55" rerouteNo="0" devices="tripinfo_Car30 routing_Car30" vType="Car" speedFactor="0.90" vaporized=""/>
    <tripinfo id="Car24" depart="132.00" departLane="1_0_1" departPos="5.10" departSpeed="15.17" departDelay="0.00" arrival="239.00" arrivalLane="4_1_0" arrivalPos="750.00" arrivalSpeed="13.90" duration="107.00" routeLength="1516.89" waitingTime="0.00" waitingCount="0" stopTime="0.00" timeLoss="5.74" rerouteNo="0" devices="tripinfo_Car24 routing_Car24" vType="Car" speedFactor="1.09" vaporized=""/>
    <tripinfo id="Car25" depart="140.00" departLane="1_0_1" departPos="5.10" departSpeed="16.24" departDelay="0.00" arrival="240.00" arrivalLane="4_1_1" arrivalPos="750.00" arrivalSpeed="15.23" duration="100.00" routeLength="1516.89" waitingTime="0.00" waitingCount="0" stopTime="0.00" timeLoss="5.45" rerouteNo="0" devices="tripinfo_Car25 routing_Car25" vType="Car" speedFactor="1.17" vaporized=""/>
    <tripinfo id="Van7" depart="134.00" departLane="1_0_1" departPos="7.20" departSpeed="14.50" departDelay="0.00" arrival="241.00" arrivalLane="2_1_0" arrivalPos="750.00" arrivalSpeed="14.03" duration="107.00" routeLength="1513.60" waitingTime="0.00" waitingCount="0" stopTime="0.00" timeLoss="2.56" rerouteNo="0" devices="tripinfo_Van7 routing_Van7" vType="Truck" speedFactor="1.04" vaporized=""/>
    <tripinfo id="Car4" depart="25.00" departLane="3_0_0" departPos="5.10" departSpeed="15.60" departDelay="0.00" arrival="245.00" arrivalLane="2_1_0" arrivalPos="750.00" arrivalSpeed="14.60" duration="220.00" routeLength="1503.93" waitingTime="103.00" waitingCount="4" stopTime="0.00" timeLoss="122.48" rerouteNo="0" devices="tripinfo_Car4 routing_Car4" vType="Car" speedFactor="1.12" vaporized=""/>
    <tripinfo id="Truck5" depart="134.00" departLane="1_0_0" departPos="7.20" departSpeed="14.19" departDelay="0.00" arrival="247.00" arrivalLane="3_1_0" arrivalPos="750.00" arrivalSpeed="13.74" duration="113.00" routeLength="1501.83" waitingTime="0.00" waitingCount="0" stopTime="0.00" timeLoss="5.46" rerouteNo="0" devices="tripinfo_Truck5 routing_Truck5" vType="Truck" speedFactor="1.02" vaporized=""/>
    <tripinfo id="Car36" depart="135.00" departLane="1_0_0" departPos="5.10" departSpeed="12.04" departDelay="1.00" arrival="252.00" arrivalLane="3_1_0" arrivalPos="750.00" arrivalSpeed="12.86" duration="117.00" routeLength="1503.93" waitingTime="0.00" waitingCount="0" stopTime="0.00" timeLoss="7.66" rerouteNo="0" devices="tripinfo_Car36 routing_Car36" vType="Car" speedFactor="1.00" vaporized=""/>
    <tripinfo id="Car6" depart="35.00" departLane="3_0_1" departPos="5.10" departSpeed="13.08" departDelay="0.00" arrival="255.00" arrivalLane="1_1_0" arrivalPos="750.00" arrivalSpeed="11.92" duration="220.00" routeLength="1516.89" waitingTime="85.00" waitingCount="4" stopTime="0.00" timeLoss="102.87" rerouteNo="0" devices="tripinfo_Car6 routing_Car6" vType="Car" speedFactor="0.94" vaporized=""/>
    <tripinfo id="Car8" depart="36.00" departLane="3_0_1" departPos="5.10" departSpeed="9.92" departDelay="1.00" arrival="257.00" arrivalLane="1_1_0" arrivalPos="750.00" arrivalSpeed="15.28" duration="221.00" routeLength="1516.89" waitingTime="92.00" waitingCount="5" stopTime="0.00" timeLoss="125.35" rerouteNo="0" devices="tripinfo_Car8 routing_Car8" vType="Car" speedFactor="1.16" vaporized=""/>
    <tripinfo id="Car18" depart="35.00" departLane="3_0_0" departPos="5.10" departSpeed="13.00" departDelay="0.00" arrival="280.00" arrivalLane="4_1_0" arrivalPos="750.00" arrivalSpeed="12.92" duration="245.00" routeLength="1515.70" waitingTime="107.00" waitingCount="6" stopTime="0.00" timeLoss="128.50" rerouteNo="0" devices="tripinfo_Car18 routing_Car18" vType="Car" speedFactor="0.94" vaporized=""/>
    <tripinfo id="Car7" depart="51.00" departLane="3_0_1" departPos="5.10" departSpeed="12.36" departDelay="0.00" arrival="285.00" arrivalLane="1_1_0" arrivalPos="750.00" arrivalSpeed="11.54" duration="234.00" routeLength="1516.89" waitingTime="79.00" waitingCount="7" stopTime="0.00" timeLoss="110.33" rerouteNo="0" devices="tripinfo_Car7 routing_Car7" vType="Car" speedFactor="0.89" vaporized=""/>
    <tripinfo id="Truck4" depart="172.00" departLane="1_0_0" departPos="7.20" departSpeed="13.91" departDelay="0.00" arrival="287.00" arrivalLane="3_1_0" arrivalPos="750.00" arrivalSpeed="13.48" duration="115.00" routeLength="1501.83" waitingTime="0.00" waitingCount="0" stopTime="0.00" timeLoss="5.84" rerouteNo="0" devices="tripinfo_Truck4 routing_Truck4" vType="Truck" speedFactor="1.00" vaporized=""/>
    <tripinfo id="Van1" depart="82.00" departLane="3_0_1" departPos="7.20" departSpeed="14.96" departDelay="0.00" arrival="289.00" arrivalLane="1_1_0" arrivalPos="750.00" arrivalSpeed="14.60" duration="207.00" routeLength="1514.79" waitingTime="68.00" waitingCount="8" stopTime="0.00" timeLoss="105.49" rerouteNo="0" devices="tripinfo_Van1 routing_Van1" vType="Truck" speedFactor="1.08" vaporized=""/>
    <tripinfo id="Truck1" depart="88.00" departLane="3_0_0" departPos="7.20" departSpeed="13.85" departDelay="0.00" arrival="292.00" arrivalLane="4_1_0" arrivalPos="750.00" arrivalSpeed="13.49" duration="204.00" routeLength="1513.60" waitingTime="67.00" waitingCount="8" stopTime="0.00" timeLoss="94.97" rerouteNo="0" devices="tripinfo_Truck1 routing_Truck1" vType="Truck" speedFactor="1.00" vaporized=""/>
    <tripinfo id="Van2" depart="88.00" departLane="3_0_1" departPos="7.20" departSpeed="15.08" departDelay="0.00" arrival="303.00" arrivalLane="1_1_0" arrivalPos="750.00" arrivalSpeed="14.72" duration="215.00" routeLength="1514.79" waitingTime="70.00" waitingCount="10" stopTime="0.00" timeLoss="113.92" rerouteNo="0" devices="tripinfo_Van2 routing_Van2" vType="Truck" speedFactor="1.09" vaporized=""/>
    <tripinfo id="Car21" depart="135.00" departLane="2_0_1" departPos="5.10" departSpeed="12.51" departDelay="0.00" arrival="306.00" arrivalLane="1_1_0" arrivalPos="750.00" arrivalSpeed="12.04" duration="171.00" routeLength="1515.70" waitingTime="38.00" waitingCount="1" stopTime="0.00" timeLoss="49.36" rerouteNo="0" devices="tripinfo_Car21 routing_Car21" vType="Car" speedFactor="0.90" vaporized=""/>
    <tripinfo id="Truck8" depart="132.00" departLane="2_0_0" departPos="7.20" departSpeed="14.15" departDelay="0.00" arrival="307.00" arrivalLane="4_1_0" arrivalPos="750.00" arrivalSpeed="14.11" duration="175.00" routeLength="1501.83" waitingTime="57.00" waitingCount="2" stopTime="0.00" timeLoss="68.04" rerouteNo="0" devices="tripinfo_Truck8 routing_Truck8" vType="Truck" speedFactor="1.02" vaporized=""/>
    <tripinfo id="Car29" depart="197.00" departLane="1_0_0" departPos="5.10" departSpeed="14.22" departDelay="0.00" arrival="315.00" arrivalLane="3_1_0" arrivalPos="750.00" arrivalSpeed="13.36" duration="118.00" routeLength="1503.93" waitingTime="1.00" waitingCount="1" stopTime="0.00" timeLoss="11.22" rerouteNo="0" devices="tripinfo_Car29 routing_Car29" vType="Car" speedFactor="1.02" vaporized=""/>
    <tripinfo id="Car16" depart="92.00" departLane="3_0_1" departPos="5.10" departSpeed="13.52" departDelay="0.00" arrival="316.00" arrivalLane="1_1_0" arrivalPos="750.00" arrivalSpeed="12.51" duration="224.00" routeLength="1516.89" waitingTime="59.00" waitingCount="11" stopTime="0.00" timeLoss="111.13" rerouteNo="0" devices="tripinfo_Car16 routing_Car16" vType="Car" speedFactor="0.97" vaporized=""/>
    <tripinfo id="Motorcycle0" depart="140.00" departLane="3_0_0" departPos="2.30" departSpeed="11.87" departDelay="0.00" arrival="316.00" arrivalLane="2_1_0" arrivalPos="750.00" arrivalSpeed="10.82" duration="176.00" routeLength="1506.73" waitingTime="17.00" waitingCount="4" stopTime="0.00" timeLoss="48.55" rerouteNo="0" devices="tripinfo_Motorcycle0 routing_Motorcycle0" vType="Motorcycle" speedFactor="0.85" vaporized=""/>
    <tripinfo id="Car12" depart="101.00" departLane="3_0_1" departPos="5.10" departSpeed="15.31" departDelay="0.00" arrival="322.00" arrivalLane="1_1_0" arrivalPos="750.00" arrivalSpeed="14.82" duration="221.00" routeLength="1516.89" waitingTime="62.00" waitingCount="12" stopTime="0.00" timeLoss="121.68" rerouteNo="0" devices="tripinfo_Car12 routing_Car12" vType="Car" speedFactor="1.10" vaporized=""/>
    <tripinfo id="Motorcycle1" depart="183.00" departLane="2_0_1" departPos="2.30" departSpeed="13.83" departDelay="0.00" arrival="322.00" arrivalLane="3_1_0" arrivalPos="750.00" arrivalSpeed="12.24" duration="139.00" routeLength="1519.69" waitingTime="7.00" waitingCount="4" stopTime="0.00" timeLoss="28.92" rerouteNo="0" devices="tripinfo_Motorcycle1 routing_Motorcycle1" vType="Motorcycle" speedFactor="1.00" vaporized=""/>
    <tripinfo id="Car26" depart="198.00" departLane="1_0_0" departPos="5.10" departSpeed="11.07" departDelay="1.00" arrival="324.00" arrivalLane="3_1_1" arrivalPos="750.00" arrivalSpeed="12.31" duration="126.00" routeLength="1503.93" waitingTime="1.00" waitingCount="1" stopTime="0.00" timeLoss="12.83" rerouteNo="0" devices="tripinfo_Car26 routing_Car26" vType="Car" speedFactor="0.97" vaporized=""/>
    <tripinfo id="Motorcycle3" depart="139.00" departLane="2_0_1" departPos="2.30" departSpeed="11.81" departDelay="0.00" arrival="327.00" arrivalLane="3_1_0" arrivalPos="750.00" arrivalSpeed="11.00" duration="188.00" routeLength="1519.69" waitingTime="32.00" waitingCount="3" stopTime="0.00" timeLoss="58.88" rerouteNo="0" devices="tripinfo_Motorcycle3 routing_Motorcycle3" vType="Motorcycle" speedFactor="0.85" vaporized=""/>
    <tripinfo id="Truck0" depart="137.00" departLane="3_0_1" departPos="7.20" departSpeed="13.04" departDelay="0.00" arrival="354.00" arrivalLane="1_1_0" arrivalPos="750.00" arrivalSpeed="12.82" duration="217.00" routeLength="1514.79" waitingTime="44.00" waitingCount="11" stopTime="0.00" timeLoss="100.62" rerouteNo="0" devices="tripinfo_Truck0 routing_Truck0" vType="Truck" speedFactor="0.94" vaporized=""/>
    <tripinfo id="Car9" depart="161.00" departLane="3_0_1" departPos="5.10" departSpeed="14.12" departDelay="0.00" arrival="361.00" arrivalLane="1_1_0" arrivalPos="750.00" arrivalSpeed="13.40" duration="200.00" routeLength="1516.89" waitingTime="40.00" waitingCount="10" stopTime="0.00" timeLoss="91.71" rerouteNo="0" devices="tripinfo_Car9 routing_Car9" vType="Car" speedFactor="1.02" vaporized=""/>
    <tripinfo id="Car0" depart="129.00" departLane="4_0_1" departPos="5.10" departSpeed="13.29" departDelay="0.00" arrival="371.00" arrivalLane="3_1_0" arrivalPos="750.00" arrivalSpeed="12.47" duration="242.00" routeLength="1515.70" waitingTime="118.00" waitingCount="1" stopTime="0.00" timeLoss="127.94" rerouteNo="0" devices="tripinfo_Car0 routing_Car0" vType="Car" speedFactor="0.96" vaporized=""/>
    <tripinfo id="Motorcycle4" depart="196.00" departLane="2_0_1" departPos="2.30" departSpeed="15.87" departDelay="0.00" arrival="373.00" arrivalLane="3_1_0" arrivalPos="750.00" arrivalSpeed="14.85" duration="177.00" routeLength="1519.69" waitingTime="63.00" waitingCount="4" stopTime="0.00" timeLoss="80.28" rerouteNo="0" devices="tripinfo_Motorcycle4 routing_Motorcycle4" vType="Motorcycle" speedFactor="1.14" vaporized=""/>
    <tripinfo id="Car39" depart="271.00" departLane="1_0_0" departPos="5.10" departSpeed="14.11" departDelay="0.00" arrival="386.00" arrivalLane="3_1_0" arrivalPos="750.00" arrivalSpeed="13.41" duration="115.00" routeLength="1503.93" waitingTime="0.00" waitingCount="0" stopTime="0.00" timeLoss="6.63" rerouteNo="0" devices="tripinfo_Car39 routing_Car39" vType="Car" speedFactor="1.02" vaporized=""/>
    <tripinfo id="Van0" depart="172.00" departLane="3_0_1" departPos="7.20" departSpeed="14.56" departDelay="0.00" arrival="395.00" arrivalLane="1_1_0" arrivalPos="750.00" arrivalSpeed="14.50" duration="223.00" routeLength="1514.79" waitingTime="62.00" waitingCount="12" stopTime="0.00" timeLoss="118.19" rerouteNo="0" devices="tripinfo_Van0 routing_Van0" vType="Truck" speedFactor="1.05" vaporized=""/>
    <tripinfo id="Car31" depart="281.00" departLane="1_0_0" departPos="5.10" departSpeed="13.71" departDelay="0.00" arrival="399.00" arrivalLane="3_1_0" arrivalPos="750.00" arrivalSpeed="13.03" duration="118.00" routeLength="1503.93" waitingTime="0.00" waitingCount="0" stopTime="0.00" timeLoss="7.28" rerouteNo="0" devices="tripinfo_Car31 routing_Car31" vType="Car" speedFactor="0.99" vaporized=""/>
    <tripinfo id="Car41" depart="281.00" departLane="1_0_1" departPos="5.10" departSpeed="13.02" departDelay="0.00" arrival="404.00" arrivalLane="2_1_0" arrivalPos="750.00" arrivalSpeed="12.19" duration="123.00" routeLength="1515.70" waitingTime="0.00" waitingCount="0" stopTime="0.00" timeLoss="5.97" rerouteNo="0" devices="tripinfo_Car41 routing_Car41" vType="Car" speedFactor="0.94" vaporized=""/>
    <tripinfo id="Car43" depart="295.00" departLane="1_0_0" departPos="5.10" departSpeed="14.45" departDelay="0.00" arrival="406.00" arrivalLane="2_1_0" arrivalPos="750.00" arrivalSpeed="13.36" duration="111.00" routeLength="1515.70" waitingTime="0.00" waitingCount="0" stopTime="0.00" timeLoss="5.37" rerouteNo="0" devices="tripinfo_Car43 routing_Car43" vType="Car" speedFactor="1.04" vaporized=""/>
    <tripinfo id="Van8" depart="295.00" departLane="1_0_1" departPos="7.20" departSpeed="14.04" departDelay="0.00" arrival="406.00" arrivalLane="2_1_1" arrivalPos="750.00" arrivalSpeed="13.50" duration="111.00" routeLength="1513.60" waitingTime="0.00" waitingCount="0" stopTime="0.00" timeLoss="3.02" rerouteNo="0" devices="tripinfo_Van8 routing_Van8" vType="Truck" speedFactor="1.01" vaporized=""/>
    <tripinfo id="Van3" depart="284.00" departLane="2_0_1" departPos="7.20" departSpeed="13.30" departDelay="0.00" arrival="413.00" arrivalLane="1_1_0" arrivalPos="750.00" arrivalSpeed="12.67" duration="129.00" routeLength="1513.60" waitingTime="4.00" waitingCount="2" stopTime="0.00" timeLoss="14.61" rerouteNo="0" devices="tripinfo_Van3 routing_Van3" vType="Truck" speedFactor="0.96" vaporized=""/>
    <tripinfo id="Truck9" depart="284.00" departLane="2_0_0" departPos="7.20" departSpeed="13.07" departDelay="0.00" arrival="414.00" arrivalLane="4_1_0" arrivalPos="750.00" arrivalSpeed="12.73" duration="130.00" routeLength="1501.83" waitingTime="2.00" waitingCount="2" stopTime="0.00" timeLoss="13.78" rerouteNo="0" devices="tripinfo_Truck9 routing_Truck9" vType="Truck" speedFactor="0.94" vaporized=""/>
    <tripinfo id="Car10" depart="202.00" departLane="3_0_1" departPos="5.10" departSpeed="15.04" departDelay="0.00" arrival="423.00" arrivalLane="1_1_0" arrivalPos="750.00" arrivalSpeed="14.58" duration="221.00" routeLength="1494.90" waitingTime="78.00" waitingCount="9" stopTime="0.00" timeLoss="122.92" rerouteNo="0" devices="tripinfo_Car10 routing_Car10" vType="Car" speedFactor="1.08" vaporized=""/>
    <tripinfo id="Car48" depart="310.00" departLane="3_0_0" departPos="5.10" departSpeed="14.21" departDelay="0.00" arrival="428.00" arrivalLane="2_1_0" arrivalPos="750.00" arrivalSpeed="13.46" duration="118.00" routeLength="1503.93" waitingTime="1.00" waitingCount="1" stopTime="0.00" timeLoss="10.35" rerouteNo="0" devices="tripinfo_Car48 routing_Car48" vType="Car" speedFactor="1.02" vaporized=""/>
    <tripinfo id="Car11" depart="214.00" departLane="3_0_1" departPos="5.10" departSpeed="15.55" departDelay="0.00" arrival="442.00" arrivalLane="1_1_1" arrivalPos="750.00" arrivalSpeed="15.08" duration="228.00" routeLength="1516.89" waitingTime="81.00" waitingCount="11" stopTime="0.00" timeLoss="130.28" rerouteNo="0" devices="tripinfo_Car11 routing_Car11" vType="Car" speedFactor="1.12" vaporized=""/>
    <tripinfo id="Car13" depart="184.00" departLane="3_0_1" departPos="5.10" departSpeed="12.49" departDelay="0.00" arrival="444.00" arrivalLane="1_1_0" arrivalPos="750.00" arrivalSpeed="11.88" duration="260.00" routeLength="1516.89" waitingTime="88.00" waitingCount="11" stopTime="0.00" timeLoss="138.15" rerouteNo="0" devices="tripinfo_Car13 routing_Car13" vType="Car" speedFactor="0.90" vaporized=""/>
    <tripinfo id="Car14" depart="284.00" departLane="3_0_1" departPos="5.10" departSpeed="12.60" departDelay="0.00" arrival="464.00" arrivalLane="1_1_0" arrivalPos="750.00" arrivalSpeed="12.33" duration="180.00" routeLength="1516.89" waitingTime="38.00" waitingCount="6" stopTime="0.00" timeLoss="59.29" rerouteNo="0" devices="tripinfo_Car14 routing_Car14" vType="Car" speedFactor="0.91" vaporized=""/>