<?xml version="1.0" encoding="UTF-8"?>

<!-- generated on 2023-10-26 14:07:53 by Eclipse SUMO GUI Version 1.18.0
<configuration xmlns:xsi="http://www.w3.org/2001/XMLSchema-instance" xsi:noNamespaceSchemaLocation="http://sumo.dlr.de/xsd/sumoConfiguration.xsd">

    <input>
        <net-file value="D:\Implementations\Mosas Studies\TrafficControlAlgorithms\Intersection\iot.net.xml"/>
        <route-files value="D:\Implementations\Mosas Studies\TrafficControlAlgorithms\Intersection\edited.rou.xml"/>
    </input>

    <output>
        <tripinfo-output value="stats\tripinfo.trips.xml"/>
        <statistic-output value="stats\statistics.stats.xml"/>
    </output>

    <time>
        <begin value="0"/>
    </time>

    <processing>
        <step-method.ballistic value="true"/>
        <time-to-teleport value="-1"/>
    </processing>

    <report>
        <verbose value="true"/>
        <no-step-log value="true"/>
    </report>

    <traci_server>
        <remote-port value="52625"/>
    </traci_server>

    <gui_only>
        <quit-on-end value="true"/>
        <start value="true"/>
    </gui_only>

</configuration>
-->

<tripinfos xmlns:xsi="http://www.w3.org/2001/XMLSchema-instance" xsi:noNamespaceSchemaLocation="http://sumo.dlr.de/xsd/tripinfo_file.xsd">
    <tripinfo id="Car35" depart="7.00" departLane="1_0_0" departPos="5.10" departSpeed="10.61" departDelay="1.00" arrival="123.00" arrivalLane="3_1_0" arrivalPos="750.00" arrivalSpeed="13.58" duration="116.00" routeLength="1503.93" waitingTime="0.00" waitingCount="0" stopTime="0.00" timeLoss="7.56" rerouteNo="0" devices="tripinfo_Car35 routing_Car35" vType="Car" speedFactor="1.01" vaporized=""/>
    <tripinfo id="Truck7" depart="10.00" departLane="1_0_0" departPos="7.20" departSpeed="14.21" departDelay="0.00" arrival="128.00" arrivalLane="3_1_0" arrivalPos="750.00" arrivalSpeed="13.97" duration="118.00" routeLength="1501.83" waitingTime="0.00" waitingCount="0" stopTime="0.00" timeLoss="11.09" rerouteNo="0" devices="tripinfo_Truck7 routing_Truck7" vType="Truck" speedFactor="1.02" vaporized=""/>
    <tripinfo id="Car32" depart="6.00" departLane="1_0_0" departPos="5.10" departSpeed="13.03" departDelay="0.00" arrival="131.00" arrivalLane="3_1_0" arrivalPos="750.00" arrivalSpeed="12.08" duration="125.00" routeLength="1503.93" waitingTime="0.00" waitingCount="0" stopTime="0.00" timeLoss="8.10" rerouteNo="0" devices="tripinfo_Car32 routing_Car32" vType="Car" speedFactor="0.94" vaporized=""/>
    <tripinfo id="Car44" depart="6.00" departLane="2_0_0" departPos="5.10" departSpeed="15.04" departDelay="0.00" arrival="134.00" arrivalLane="4_1_0" arrivalPos="750.00" arrivalSpeed="14.57" duration="128.00" routeLength="1503.93" waitingTime="18.00" waitingCount="1" stopTime="0.00" timeLoss="27.53" rerouteNo="0" devices="tripinfo_Car44 routing_Car44" vType="Car" speedFactor="1.08" vaporized=""/>
    <tripinfo id="Motorcycle2" depart="6.00" departLane="2_0_1" departPos="2.30" departSpeed="14.72" departDelay="0.00" arrival="138.00" arrivalLane="3_1_0" arrivalPos="750.00" arrivalSpeed="14.66" duration="132.00" routeLength="1519.69" waitingTime="15.00" waitingCount="1" stopTime="0.00" timeLoss="27.85" rerouteNo="0" devices="tripinfo_Motorcycle2 routing_Motorcycle2" vType="Motorcycle" speedFactor="1.06" vaporized=""/>
    <tripinfo id="Car15" depart="16.00" departLane="3_0_1" departPos="5.10" departSpeed="15.15" departDelay="0.00" arrival="141.00" arrivalLane="1_1_0" arrivalPos="750.00" arrivalSpeed="14.15" duration="125.00" routeLength="1516.89" waitingTime="14.00" waitingCount="1" stopTime="0.00" timeLoss="23.56" rerouteNo="0" devices="tripinfo_Car15 routing_Car15" vType="Car" speedFactor="1.09" vaporized=""/>
    <tripinfo id="Car4" depart="25.00" departLane="3_0_0" departPos="5.10" departSpeed="15.60" departDelay="0.00" arrival="141.00" arrivalLane="2_1_0" arrivalPos="750.00" arrivalSpeed="14.32" duration="116.00" routeLength="1503.93" waitingTime="3.00" waitingCount="1" stopTime="0.00" timeLoss="18.79" rerouteNo="0" devices="tripinfo_Car4 routing_Car4" vType="Car" speedFactor="1.12" vaporized=""/>
    <tripinfo id="Car17" depart="25.00" departLane="3_0_1" departPos="5.10" departSpeed="14.54" departDelay="0.00" arrival="145.00" arrivalLane="1_1_0" arrivalPos="750.00" arrivalSpeed="13.53" duration="120.00" routeLength="1516.89" waitingTime="5.00" waitingCount="1" stopTime="0.00" timeLoss="14.80" rerouteNo="0" devices="tripinfo_Car17 routing_Car17" vType="Car" speedFactor="1.05" vaporized=""/>
    <tripinfo id="Car23" depart="21.00" departLane="1_0_1" departPos="5.10" departSpeed="14.26" departDelay="0.00" arrival="153.00" arrivalLane="4_1_0" arrivalPos="750.00" arrivalSpeed="13.63" duration="132.00" routeLength="1516.89" waitingTime="16.00" waitingCount="1" stopTime="0.00" timeLoss="24.94" rerouteNo="0" devices="tripinfo_Car23 routing_Car23" vType="Car" speedFactor="1.03" vaporized=""/>
    <tripinfo id="Car5" depart="10.00" departLane="3_0_0" departPos="5.10" departSpeed="11.54" departDelay="0.00" arrival="158.00" arrivalLane="2_1_0" arrivalPos="750.00" arrivalSpeed="11.39" duration="148.00" routeLength="1503.93" waitingTime="4.00" waitingCount="1" stopTime="0.00" timeLoss="16.04" rerouteNo="0" devices="tripinfo_Car5 routing_Car5" vType="Car" speedFactor="0.83" vaporized=""/>
    <tripinfo id="Van5" depart="11.00" departLane="1_0_0" departPos="7.20" departSpeed="11.52" departDelay="0.00" arrival="160.00" arrivalLane="3_1_0" arrivalPos="750.00" arrivalSpeed="12.69" duration="149.00" routeLength="1501.83" waitingTime="19.00" waitingCount="1" stopTime="0.00" timeLoss="33.42" rerouteNo="0" devices="tripinfo_Van5 routing_Van5" vType="Truck" speedFactor="0.94" vaporized=""/>
    <tripinfo id="Truck3" depart="16.00" departLane="1_0_0" departPos="7.20" departSpeed="12.90" departDelay="0.00" arrival="163.00" arrivalLane="3_1_0" arrivalPos="750.00" arrivalSpeed="12.59" duration="147.00" routeLength="1501.83" waitingTime="18.00" waitingCount="1" stopTime="0.00" timeLoss="29.86" rerouteNo="0" devices="tripinfo_Truck3 routing_Truck3" vType="Truck" speedFactor="0.93" vaporized=""/>
    <tripinfo id="Car3" depart="35.00" departLane="4_0_1" departPos="5.10" departSpeed="14.14" departDelay="0.00" arrival="165.00" arrivalLane="3_1_1" arrivalPos="750.00" arrivalSpeed="14.06" duration="130.00" routeLength="1515.70" waitingTime="13.00" waitingCount="1" stopTime="0.00" timeLoss="22.31" rerouteNo="0" devices="tripinfo_Car3 routing_Car3" vType="Car" speedFactor="1.02" vaporized=""/>
    <tripinfo id="Car19" depart="10.00" departLane="2_0_1" departPos="5.10" departSpeed="14.31" departDelay="0.00" arrival="169.00" arrivalLane="3_1_0" arrivalPos="750.00" arrivalSpeed="13.13" duration="159.00" routeLength="1516.89" waitingTime="40.00" waitingCount="2" stopTime="0.00" timeLoss="51.79" rerouteNo="0" devices="tripinfo_Car19 routing_Car19" vType="Car" speedFactor="1.03" vaporized=""/>
    <tripinfo id="Car8" depart="36.00" departLane="3_0_1" departPos="5.10" departSpeed="9.92" departDelay="1.00" arrival="173.00" arrivalLane="1_1_0" arrivalPos="750.00" arrivalSpeed="15.92" duration="137.00" routeLength="1516.89" waitingTime="17.00" waitingCount="1" stopTime="0.00" timeLoss="41.17" rerouteNo="0" devices="tripinfo_Car8 routing_Car8" vType="Car" speedFactor="1.16" vaporized=""/>
    <tripinfo id="Car1" depart="35.00" departLane="4_0_0" departPos="5.10" departSpeed="12.20" departDelay="0.00" arrival="174.00" arrivalLane="3_1_0" arrivalPos="750.00" arrivalSpeed="11.51" duration="139.00" routeLength="1515.70" waitingTime="3.00" waitingCount="1" stopTime="0.00" timeLoss="14.77" rerouteNo="0" devices="tripinfo_Car1 routing_Car1" vType="Car" speedFactor="0.88" vaporized=""/>
    <tripinfo id="Car6" depart="35.00" departLane="3_0_1" departPos="5.10" departSpeed="13.08" departDelay="0.00" arrival="180.00" arrivalLane="1_1_0" arrivalPos="750.00" arrivalSpeed="12.69" duration="145.00" routeLength="1516.89" waitingTime="17.00" waitingCount="1" stopTime="0.00" timeLoss="28.37" rerouteNo="0" devices="tripinfo_Car6 routing_Car6" vType="Car" speedFactor="0.94" vaporized=""/>
    <tripinfo id="Car18" depart="35.00" departLane="3_0_0" departPos="5.10" departSpeed="13.00" departDelay="0.00" arrival="180.00" arrivalLane="4_1_0" arrivalPos="750.00" arrivalSpeed="12.24" duration="145.00" routeLength="1515.70" waitingTime="17.00" waitingCount="1" stopTime="0.00" timeLoss="28.24" rerouteNo="0" devices="tripinfo_Car18 routing_Car18" vType="Car" speedFactor="0.94" vaporized=""/>
    <tripinfo id="Car27" depart="31.00" departLane="1_0_0" departPos="5.10" departSpeed="13.77" departDelay="0.00" arrival="187.00" arrivalLane="3_1_0" arrivalPos="750.00" arrivalSpeed="12.72" duration="156.00" routeLength="1503.93" waitingTime="28.00" waitingCount="2" stopTime="0.00" timeLoss="45.69" rerouteNo="0" devices="tripinfo_Car27 routing_Car27" vType="Car" speedFactor="0.99" vaporized=""/>
    <tripinfo id="Car7" depart="51.00" departLane="3_0_1" departPos="5.10" departSpeed="12.36" departDelay="0.00" arrival="188.00" arrivalLane="1_1_0" arrivalPos="750.00" arrivalSpeed="11.13" duration="137.00" routeLength="1516.89" waitingTime="1.00" waitingCount="1" stopTime="0.00" timeLoss="13.13" rerouteNo="0" devices="tripinfo_Car7 routing_Car7" vType="Car" speedFactor="0.89" vaporized=""/>
    <tripinfo id="Car28" depart="44.00" departLane="1_0_0" departPos="5.10" departSpeed="14.03" departDelay="0.00" arrival="191.00" arrivalLane="3_1_0" arrivalPos="750.00" arrivalSpeed="13.98" duration="147.00" routeLength="1503.93" waitingTime="20.00" waitingCount="1" stopTime="0.00" timeLoss="38.61" rerouteNo="0" devices="tripinfo_Car28 routing_Car28" vType="Car" speedFactor="1.01" vaporized=""/>
    <tripinfo id="Car42" depart="55.00" departLane="1_0_1" departPos="5.10" departSpeed="12.74" departDelay="0.00" arrival="191.00" arrivalLane="2_1_0" arrivalPos="750.00" arrivalSpeed="12.39" duration="136.00" routeLength="1515.70" waitingTime="7.00" waitingCount="1" stopTime="0.00" timeLoss="16.46" rerouteNo="0" devices="tripinfo_Car42 routing_Car42" vType="Car" speedFactor="0.92" vaporized=""/>
    <tripinfo id="Car34" depart="32.00" departLane="1_0_0" departPos="5.10" departSpeed="10.98" departDelay="1.00" arrival="194.00" arrivalLane="3_1_0" arrivalPos="750.00" arrivalSpeed="11.66" duration="162.00" routeLength="1503.93" waitingTime="23.00" waitingCount="2" stopTime="0.00" timeLoss="43.69" rerouteNo="0" devices="tripinfo_Car34 routing_Car34" vType="Car" speedFactor="0.93" vaporized=""/>
    <tripinfo id="Car20" depart="16.00" departLane="2_0_1" departPos="5.10" departSpeed="13.03" departDelay="0.00" arrival="206.00" arrivalLane="3_1_1" arrivalPos="750.00" arrivalSpeed="12.71" duration="190.00" routeLength="1516.89" waitingTime="55.00" waitingCount="3" stopTime="0.00" timeLoss="72.39" rerouteNo="0" devices="tripinfo_Car20 routing_Car20" vType="Car" speedFactor="0.94" vaporized=""/>
    <tripinfo id="Car2" depart="55.00" departLane="4_0_1" departPos="5.10" departSpeed="12.12" departDelay="0.00" arrival="206.00" arrivalLane="3_1_0" arrivalPos="750.00" arrivalSpeed="11.95" duration="151.00" routeLength="1515.70" waitingTime="13.00" waitingCount="1" stopTime="0.00" timeLoss="25.41" rerouteNo="0" devices="tripinfo_Car2 routing_Car2" vType="Car" speedFactor="0.87" vaporized=""/>
    <tripinfo id="Van1" depart="82.00" departLane="3_0_1" departPos="7.20" departSpeed="14.96" departDelay="0.00" arrival="206.00" arrivalLane="1_1_0" arrivalPos="750.00" arrivalSpeed="14.49" duration="124.00" routeLength="1514.79" waitingTime="11.00" waitingCount="1" stopTime="0.00" timeLoss="21.63" rerouteNo="0" devices="tripinfo_Van1 routing_Van1" vType="Truck" speedFactor="1.08" vaporized=""/>
    <tripinfo id="Van2" depart="88.00" departLane="3_0_1" departPos="7.20" departSpeed="15.08" departDelay="0.00" arrival="208.00" arrivalLane="1_1_1" arrivalPos="750.00" arrivalSpeed="14.56" duration="120.00" routeLength="1514.79" waitingTime="7.00" waitingCount="1" stopTime="0.00" timeLoss="18.99" rerouteNo="0" devices="tripinfo_Van2 routing_Van2" vType="Truck" speedFactor="1.09" vaporized=""/>
    <tripinfo id="Truck1" depart="88.00" departLane="3_0_0" departPos="7.20" departSpeed="13.85" departDelay="0.00" arrival="209.00" arrivalLane="4_1_0" arrivalPos="750.00" arrivalSpeed="13.36" duration="121.00" routeLength="1513.60" waitingTime="1.00" waitingCount="1" stopTime="0.00" timeLoss="11.22" rerouteNo="0" devices="tripinfo_Truck1 routing_Truck1" vType="Truck" speedFactor="1.00" vaporized=""/>
    <tripinfo id="Car22" depart="51.00" departLane="2_0_1" departPos="5.10" departSpeed="11.47" departDelay="0.00" arrival="213.00" arrivalLane="1_1_0" arrivalPos="750.00" arrivalSpeed="10.61" duration="162.00" routeLength="1515.70" waitingTime="18.00" waitingCount="1" stopTime="0.00" timeLoss="29.46" rerouteNo="0" devices="tripinfo_Car22 routing_Car22" vType="Car" speedFactor="0.83" vaporized=""/>
    <tripinfo id="Car38" depart="59.00" departLane="1_0_0" departPos="5.10" departSpeed="15.72" departDelay="0.00" arrival="215.00" arrivalLane="3_1_0" arrivalPos="750.00" arrivalSpeed="14.95" duration="156.00" routeLength="1503.93" waitingTime="32.00" waitingCount="2" stopTime="0.00" timeLoss="59.58" rerouteNo="0" devices="tripinfo_Car38 routing_Car38" vType="Car" speedFactor="1.13" vaporized=""/>
    <tripinfo id="Car40" depart="47.00" departLane="1_0_0" departPos="5.10" departSpeed="13.54" departDelay="0.00" arrival="218.00" arrivalLane="3_1_0" arrivalPos="750.00" arrivalSpeed="12.93" duration="171.00" routeLength="1503.93" waitingTime="39.00" waitingCount="2" stopTime="0.00" timeLoss="59.30" rerouteNo="0" devices="tripinfo_Car40 routing_Car40" vType="Car" speedFactor="0.97" vaporized=""/>
    <tripinfo id="Car37" depart="55.00" departLane="1_0_0" departPos="5.10" departSpeed="13.18" departDelay="0.00" arrival="223.00" arrivalLane="3_1_0" arrivalPos="750.00" arrivalSpeed="12.25" duration="168.00" routeLength="1503.93" waitingTime="33.00" waitingCount="2" stopTime="0.00" timeLoss="52.61" rerouteNo="0" devices="tripinfo_Car37 routing_Car37" vType="Car" speedFactor="0.95" vaporized=""/>
    <tripinfo id="Truck2" depart="89.00" departLane="2_0_1" departPos="7.20" departSpeed="14.03" departDelay="0.00" arrival="235.00" arrivalLane="3_1_0" arrivalPos="750.00" arrivalSpeed="13.50" duration="146.00" routeLength="1514.79" waitingTime="25.00" waitingCount="1" stopTime="0.00" timeLoss="36.55" rerouteNo="0" devices="tripinfo_Truck2 routing_Truck2" vType="Truck" speedFactor="1.01" vaporized=""/>
    <tripinfo id="Car12" depart="101.00" departLane="3_0_1" departPos="5.10" departSpeed="15.31" departDelay="0.00" arrival="236.00" arrivalLane="1_1_0" arrivalPos="750.00" arrivalSpeed="14.52" duration="135.00" routeLength="1516.89" waitingTime="22.00" waitingCount="1" stopTime="0.00" timeLoss="34.71" rerouteNo="0" devices="tripinfo_Car12 routing_Car12" vType="Car" speedFactor="1.10" vaporized=""/>
    <tripinfo id="Car16" depart="92.00" departLane="3_0_1" departPos="5.10" departSpeed="13.52" departDelay="0.00" arrival="240.00" arrivalLane="1_1_0" arrivalPos="750.00" arrivalSpeed="12.64" duration="148.00" routeLength="1516.89" waitingTime="22.00" waitingCount="1" stopTime="0.00" timeLoss="35.09" rerouteNo="0" devices="tripinfo_Car16 routing_Car16" vType="Car" speedFactor="0.97" vaporized=""/>
    <tripinfo id="Car24" depart="132.00" departLane="1_0_1" departPos="5.10" departSpeed="15.17" departDelay="0.00" arrival="244.00" arrivalLane="4_1_0" arrivalPos="750.00" arrivalSpeed="13.96" duration="112.00" routeLength="1516.89" waitingTime="1.00" waitingCount="1" stopTime="0.00" timeLoss="10.70" rerouteNo="0" devices="tripinfo_Car24 routing_Car24" vType="Car" speedFactor="1.09" vaporized=""/>
    <tripinfo id="Car25" depart="140.00" departLane="1_0_1" departPos="5.10" departSpeed="16.24" departDelay="0.00" arrival="246.00" arrivalLane="4_1_0" arrivalPos="750.00" arrivalSpeed="15.15" duration="106.00" routeLength="1516.89" waitingTime="0.00" waitingCount="0" stopTime="0.00" timeLoss="11.37" rerouteNo="0" devices="tripinfo_Car25 routing_Car25" vType="Car" speedFactor="1.17" vaporized=""/>
    <tripinfo id="Truck6" depart="73.00" departLane="1_0_0" departPos="7.20" departSpeed="5.10" departDelay="0.00" arrival="247.00" arrivalLane="3_1_0" arrivalPos="750.00" arrivalSpeed="14.93" duration="174.00" routeLength="1501.83" waitingTime="39.00" waitingCount="2" stopTime="0.00" timeLoss="73.55" rerouteNo="0" devices="tripinfo_Truck6 routing_Truck6" vType="Truck" speedFactor="1.09" vaporized=""/>
    <tripinfo id="Van7" depart="134.00" departLane="1_0_1" departPos="7.20" departSpeed="14.50" departDelay="0.00" arrival="249.00" arrivalLane="2_1_0" arrivalPos="750.00" arrivalSpeed="14.35" duration="115.00" routeLength="1513.60" waitingTime="0.00" waitingCount="0" stopTime="0.00" timeLoss="10.14" rerouteNo="0" devices="tripinfo_Van7 routing_Van7" vType="Truck" speedFactor="1.04" vaporized=""/>
    <tripinfo id="Car33" depart="82.00" departLane="1_0_0" departPos="5.10" departSpeed="13.96" departDelay="0.00" arrival="254.00" arrivalLane="3_1_1" arrivalPos="750.00" arrivalSpeed="12.87" duration="172.00" routeLength="1503.93" waitingTime="38.00" waitingCount="2" stopTime="0.00" timeLoss="63.26" rerouteNo="0" devices="tripinfo_Car33 routing_Car33" vType="Car" speedFactor="1.01" vaporized=""/>
    <tripinfo id="Motorcycle5" depart="72.00" departLane="1_0_0" departPos="2.30" departSpeed="12.94" departDelay="0.00" arrival="256.00" arrivalLane="3_1_0" arrivalPos="750.00" arrivalSpeed="11.48" duration="184.00" routeLength="1506.73" waitingTime="41.00" waitingCount="2" stopTime="0.00" timeLoss="66.26" rerouteNo="0" devices="tripinfo_Motorcycle5 routing_Motorcycle5" vType="Motorcycle" speedFactor="0.93" vaporized=""/>
    <tripinfo id="Car0" depart="129.00" departLane="4_0_1" departPos="5.10" departSpeed="13.29" departDelay="0.00" arrival="262.00" arrivalLane="3_1_0" arrivalPos="750.00" arrivalSpeed="12.19" duration="133.00" routeLength="1515.70" waitingTime="8.00" waitingCount="1" stopTime="0.00" timeLoss="18.52" rerouteNo="0" devices="tripinfo_Car0 routing_Car0" vType="Car" speedFactor="0.96" vaporized=""/>
    <tripinfo id="Truck8" depart="132.00" departLane="2_0_0" departPos="7.20" departSpeed="14.15" departDelay="0.00" arrival="263.00" arrivalLane="4_1_0" arrivalPos="750.00" arrivalSpeed="13.90" duration="131.00" routeLength="1501.83" waitingTime="14.00" waitingCount="1" stopTime="0.00" timeLoss="23.74" rerouteNo="0" devices="tripinfo_Truck8 routing_Truck8" vType="Truck" speedFactor="1.02" vaporized=""/>
    <tripinfo id="Car21" depart="135.00" departLane="2_0_1" departPos="5.10" departSpeed="12.51" departDelay="0.00" arrival="270.00" arrivalLane="1_1_0" arrivalPos="750.00" arrivalSpeed="11.76" duration="135.00" routeLength="1515.70" waitingTime="1.00" waitingCount="1" stopTime="0.00" timeLoss="13.37" rerouteNo="0" devices="tripinfo_Car21 routing_Car21" vType="Car" speedFactor="0.90" vaporized=""/>
    <tripinfo id="Truck0" depart="137.00" departLane="3_0_1" departPos="7.20" departSpeed="13.04" departDelay="0.00" arrival="275.00" arrivalLane="1_1_0" arrivalPos="750.00" arrivalSpeed="12.92" duration="138.00" routeLength="1514.79" waitingTime="10.00" waitingCount="1" stopTime="0.00" timeLoss="20.27" rerouteNo="0" devices="tripinfo_Truck0 routing_Truck0" vType="Truck" speedFactor="0.94" vaporized=""/>
    <tripinfo id="Van6" depart="97.00" departLane="1_0_0" departPos="7.20" departSpeed="15.14" departDelay="0.00" arrival="277.00" arrivalLane="3_1_0" arrivalPos="750.00" arrivalSpeed="14.59" duration="180.00" routeLength="1501.83" waitingTime="54.00" waitingCount="3" stopTime="0.00" timeLoss="79.26" rerouteNo="0" devices="tripinfo_Van6 routing_Van6" vType="Truck" speedFactor="1.09" vaporized=""/>
    <tripinfo id="Motorcycle0" depart="140.00" departLane="3_0_0" departPos="2.30" departSpeed="11.87" departDelay="0.00" arrival="289.00" arrivalLane="2_1_0" arrivalPos="750.00" arrivalSpeed="10.39" duration="149.00" routeLength="1506.73" waitingTime="0.00" waitingCount="0" stopTime="0.00" timeLoss="21.39" rerouteNo="0" devices="tripinfo_Motorcycle0 routing_Motorcycle0" vType="Motorcycle" speedFactor="0.85" vaporized=""/>
    <tripinfo id="Car30" depart="108.00" departLane="1_0_0" departPos="5.10" departSpeed="12.51" departDelay="0.00" arrival="290.00" arrivalLane="3_1_0" arrivalPos="750.00" arrivalSpeed="11.85" duration="182.00" routeLength="1503.93" waitingTime="38.00" waitingCount="2" stopTime="0.00" timeLoss="60.18" rerouteNo="0" devices="tripinfo_Car30 routing_Car30" vType="Car" speedFactor="0.90" vaporized=""/>
    <tripinfo id="Car9" depart="161.00" departLane="3_0_1" departPos="5.10" departSpeed="14.12" departDelay="0.00" arrival="300.00" arrivalLane="1_1_0" arrivalPos="750.00" arrivalSpeed="12.90" duration="139.00" routeLength="1516.89" waitingTime="20.00" waitingCount="1" stopTime="0.00" timeLoss="30.34" rerouteNo="0" devices="tripinfo_Car9 routing_Car9" vType="Car" speedFactor="1.02" vaporized=""/>
    <tripinfo id="Van0" depart="172.00" departLane="3_0_1" departPos="7.20" departSpeed="14.56" departDelay="0.00" arrival="302.00" arrivalLane="1_1_0" arrivalPos="750.00" arrivalSpeed="14.30" duration="130.00" routeLength="1514.79" waitingTime="13.00" waitingCount="1" stopTime="0.00" timeLoss="24.58" rerouteNo="0" devices="tripinfo_Van0 routing_Van0" vType="Truck" speedFactor="1.05" vaporized=""/>
    <tripinfo id="Van4" depart="123.00" departLane="1_0_0" departPos="7.20" departSpeed="14.10" departDelay="0.00" arrival="311.00" arrivalLane="3_1_1" arrivalPos="750.00" arrivalSpeed="13.76" duration="188.00" routeLength="1501.83" waitingTime="56.00" waitingCount="3" stopTime="0.00" timeLoss="80.69" rerouteNo="0" devices="tripinfo_Van4 routing_Van4" vType="Truck" speedFactor="1.02" vaporized=""/>
    <tripinfo id="Motorcycle3" depart="139.00" departLane="2_0_1" departPos="2.30" departSpeed="11.81" departDelay="0.00" arrival="311.00" arrivalLane="3_1_0" arrivalPos="750.00" arrivalSpeed="9.74" duration="172.00" routeLength="1519.69" waitingTime="19.00" waitingCount="1" stopTime="0.00" timeLoss="41.92" rerouteNo="0" devices="tripinfo_Motorcycle3 routing_Motorcycle3" vType="Motorcycle" speedFactor="0.85" vaporized=""/>
    <tripinfo id="Truck5" depart="134.00" departLane="1_0_0" departPos="7.20" departSpeed="14.19" departDelay="0.00" arrival="313.00" arrivalLane="3_1_0" arrivalPos="750.00" arrivalSpeed="13.58" duration="179.00" routeLength="1501.83" waitingTime="47.00" waitingCount="3" stopTime="0.00" timeLoss="72.11" rerouteNo="0" devices="tripinfo_Truck5 routing_Truck5" vType="Truck" speedFactor="1.02" vaporized=""/>
    <tripinfo id="Motorcycle4" depart="196.00" departLane="2_0_1" departPos="2.30" departSpeed="15.87" departDelay="0.00" arrival="322.00" arrivalLane="3_1_0" arrivalPos="750.00" arrivalSpeed="14.62" duration="126.00" routeLength="1519.69" waitingTime="16.00" waitingCount="1" stopTime="0.00" timeLoss="28.83" rerouteNo="0" devices="tripinfo_Motorcycle4 routing_Motorcycle4" vType="Motorcycle" speedFactor="1.14" vaporized=""/>
    <tripinfo id="Motorcycle1" depart="183.00" departLane="2_0_1" departPos="2.30" departSpeed="13.83" departDelay="0.00" arrival="329.00" arrivalLane="3_1_0" arrivalPos="750.00" arrivalSpeed="12.97" duration="146.00" routeLength="1519.69" waitingTime="19.00" waitingCount="1" stopTime="0.00" timeLoss="34.68" rerouteNo="0" devices="tripinfo_Motorcycle1 routing_Motorcycle1" vType="Motorcycle" speedFactor="1.00" vaporized=""/>
    <tripinfo id="Car10" depart="202.00" departLane="3_0_1" departPos="5.10" departSpeed="15.04" departDelay="0.00" arrival="330.00" arrivalLane="1_1_0" arrivalPos="750.00" arrivalSpeed="14.82" duration="128.00" routeLength="1516.89" waitingTime="16.00" waitingCount="1" stopTime="0.00" timeLoss="25.64" rerouteNo="0" devices="tripinfo_Car10 routing_Car10" vType="Car" speedFactor="1.08" vaporized=""/>
    <tripinfo id="Car11" depart="214.00" departLane="3_0_1" departPos="5.10" departSpeed="15.55" departDelay="0.00" arrival="331.00" arrivalLane="1_1_1" arrivalPos="750.00" arrivalSpeed="14.91" duration="117.00" routeLength="1516.89" waitingTime="7.00" waitingCount="1" stopTime="0.00" timeLoss="17.93" rerouteNo="0" devices="tripinfo_Car11 routing_Car11" vType="Car" speedFactor="1.12" vaporized=""/>
    <tripinfo id="Car13" depart="184.00" departLane="3_0_1" departPos="5.10" departSpeed="12.49" departDelay="0.00" arrival="338.00" arrivalLane="1_1_0" arrivalPos="750.00" arrivalSpeed="11.60" duration="154.00" routeLength="1516.89" waitingTime="21.00" waitingCount="1" stopTime="0.00" timeLoss="31.71" rerouteNo="0" devices="tripinfo_Car13 routing_Car13" vType="Car" speedFactor="0.90" vaporized=""/>
    <tripinfo id="Car36" depart="135.00" departLane="1_0_0" departPos="5.10" departSpeed="11.96" departDelay="1.00" arrival="341.00" arrivalLane="3_1_0" arrivalPos="750.00" arrivalSpeed="12.58" duration="206.00" routeLength="1503.93" waitingTime="66.00" waitingCount="4" stopTime="0.00" timeLoss="96.12" rerouteNo="0" devices="tripinfo_Car36 routing_Car36" vType="Car" speedFactor="1.00" vaporized=""/>
    <tripinfo id="Truck4" depart="172.00" departLane="1_0_0" departPos="7.20" departSpeed="13.91" departDelay="0.00" arrival="344.00" arrivalLane="3_1_0" arrivalPos="750.00" arrivalSpeed="13.57" duration="172.00" routeLength="1501.83" waitingTime="42.00" waitingCount="2" stopTime="0.00" timeLoss="63.08" rerouteNo="0" devices="tripinfo_Truck4 routing_Truck4" vType="Truck" speedFactor="1.00" vaporized=""/>
    <tripinfo id="Car29" depart="197.00" departLane="1_0_0" departPos="5.10" departSpeed="14.22" departDelay="0.00" arrival="346.00" arrivalLane="3_1_0" arrivalPos="750.00" arrivalSpeed="13.63" duration="149.00" routeLength="1503.93" waitingTime="23.00" waitingCount="2" stopTime="0.00" timeLoss="42.40" rerouteNo="0" devices="tripinfo_Car29 routing_Car29" vType="Car" speedFactor="1.02" vaporized=""/>
    <tripinfo id="Car26" depart="198.00" departLane="1_0_0" departPos="5.10" departSpeed="11.65" departDelay="1.00" arrival="374.00" arrivalLane="3_1_0" arrivalPos="750.00" arrivalSpeed="13.41" duration="176.00" routeLength="1503.93" waitingTime="40.00" waitingCount="2" stopTime="0.00" timeLoss="62.59" rerouteNo="0" devices="tripinfo_Car26 routing_Car26" vType="Car" speedFactor="0.97" vaporized=""/>
    <tripinfo id="Car39" depart="271.00" departLane="1_0_0" departPos="5.10" departSpeed="14.11" departDelay="0.00" arrival="402.00" arrivalLane="3_1_0" arrivalPos="750.00" arrivalSpeed="14.11" duration="131.00" routeLength="1503.93" waitingTime="14.00" waitingCount="1" stopTime="0.00" timeLoss="22.86" rerouteNo="0" devices="tripinfo_Car39 routing_Car39" vType="Car" speedFactor="1.02" vaporized=""/>
    <tripinfo id="Car41" depart="281.00" departLane="1_0_1" departPos="5.10" departSpeed="13.02" departDelay="0.00" arrival="405.00" arrivalLane="2_1_0" arrivalPos="750.00" arrivalSpeed="12.50" duration="124.00" routeLength="1515.70" waitingTime="0.00" waitingCount="0" stopTime="0.00" timeLoss="7.00" rerouteNo="0" devices="tripinfo_Car41 routing_Car41" vType="Car" speedFactor="0.94" vaporized=""/>
    <tripinfo id="Car31" depart="281.00" departLane="1_0_0" departPos="5.10" departSpeed="13.71" departDelay="0.00" arrival="406.00" arrivalLane="3_1_0" arrivalPos="750.00" arrivalSpeed="13.38" duration="125.00" routeLength="1503.93" waitingTime="3.00" waitingCount="1" stopTime="0.00" timeLoss="14.26" rerouteNo="0" devices="tripinfo_Car31 routing_Car31" vType="Car" speedFactor="0.99" vaporized=""/>
    <tripinfo id="Van8" depart="295.00" departLane="1_0_1" departPos="7.20" departSpeed="14.04" departDelay="0.00" arrival="406.00" arrivalLane="2_1_1" arrivalPos="750.00" arrivalSpeed="13.85" duration="111.00" routeLength="1513.60" waitingTime="0.00" waitingCount="0" stopTime="0.00" timeLoss="2.66" rerouteNo="0" devices="tripinfo_Van8 routing_Van8" vType="Truck" speedFactor="1.01" vaporized=""/>
    <tripinfo id="Car43" depart="295.00" departLane="1_0_0" departPos="5.10" departSpeed="14.45" departDelay="0.00" arrival="407.00" arrivalLane="2_1_0" arrivalPos="750.00" arrivalSpeed="14.36" duration="112.00" routeLength="1515.70" waitingTime="0.00" waitingCount="0" stopTime="0.00" timeLoss="6.16" rerouteNo="0" devices="tripinfo_Car43 routing_Car43" vType="Car" speedFactor="1.04" vaporized=""/>
    <tripinfo id="Van3" depart="284.00" departLane="2_0_1" departPos="7.20" departSpeed="13.30" departDelay="0.00" arrival="422.00" arrivalLane="1_1_0" arrivalPos="750.00" arrivalSpeed="12.70" duration="138.00" routeLength="1513.60" waitingTime="14.00" waitingCount="1" stopTime="0.00" timeLoss="23.99" rerouteNo="0" devices="tripinfo_Van3 routing_Van3" vType="Truck" speedFactor="0.96" vaporized=""/>
    <tripinfo id="Truck9" depart="284.00" departLane="2_0_0" departPos="7.20" departSpeed="13.07" departDelay="0.00" arrival="423.00" arrivalLane="4_1_0" arrivalPos="750.00" arrivalSpeed="12.58" duration="139.00" routeLength="1501.83" waitingTime="13.00" waitingCount="1" stopTime="0.00" timeLoss="22.71" rerouteNo="0" devices="tripinfo_Truck9 routing_Truck9" vType="Truck" speedFactor="0.94" vaporized=""/>
    <tripinfo id="Car48" depart="310.00" departLane="3_0_0" departPos="5.10" departSpeed="14.21" departDelay="0.00" arrival="424.00" arrivalLane="2_1_0" arrivalPos="750.00" arrivalSpeed="12.99" duration="114.00" routeLength="1503.93" waitingTime="0.00" waitingCount="0" stopTime="0.00" timeLoss="7.47" rerouteNo="0" devices="tripinfo_Car48 routing_Car48" vType="Car" speedFactor="1.02" vaporized=""/>
    <tripinfo id="Car14" depart="284.00" departLane="3_0_1" departPos="5.10" departSpeed="12.60" departDelay="0.00" arrival="430.00" arrivalLane="1_1_0" arrivalPos="750.00" arrivalSpeed="12.39" duration="146.00" routeLength="1516.89" waitingTime="14.00" waitingCount="1" stopTime="0.00" timeLoss="24.58" rerouteNo="0" devices="tripinfo_Car14 routing_Car14" vType="Car" speedFactor="0.91" vaporized=""/>