<?xml version="1.0" encoding="UTF-8"?>

<!-- generated on 2023-11-05 19:50:25 by Eclipse SUMO GUI Version 1.18.0
<configuration xmlns:xsi="http://www.w3.org/2001/XMLSchema-instance" xsi:noNamespaceSchemaLocation="http://sumo.dlr.de/xsd/sumoConfiguration.xsd">

    <input>
        <net-file value="D:\Implementations\Mosas Studies\TrafficControlAlgorithms\Intersection\iot.net.xml"/>
        <route-files value="D:\Implementations\Mosas Studies\TrafficControlAlgorithms\Intersection\edited.rou.xml"/>
    </input>

    <output>
        <tripinfo-output value="stats\tripinfo.trips.xml"/>
        <statistic-output value="stats\statistics.stats.xml"/>
    </output>

    <time>
        <begin value="0"/>
    </time>

    <processing>
        <step-method.ballistic value="true"/>
        <time-to-teleport value="-1"/>
    </processing>

    <report>
        <verbose value="true"/>
        <no-step-log value="true"/>
    </report>

    <traci_server>
        <remote-port value="64409"/>
    </traci_server>

    <gui_only>
        <quit-on-end value="true"/>
        <start value="true"/>
    </gui_only>

</configuration>
-->

<tripinfos xmlns:xsi="http://www.w3.org/2001/XMLSchema-instance" xsi:noNamespaceSchemaLocation="http://sumo.dlr.de/xsd/tripinfo_file.xsd">
    <tripinfo id="Car44" depart="6.00" departLane="2_0_1" departPos="5.10" departSpeed="15.04" departDelay="0.00" arrival="121.00" arrivalLane="4_1_0" arrivalPos="750.00" arrivalSpeed="13.77" duration="115.00" routeLength="1516.89" waitingTime="4.00" waitingCount="1" stopTime="0.00" timeLoss="12.87" rerouteNo="0" devices="tripinfo_Car44 routing_Car44" vType="Car" speedFactor="1.08" vaporized=""/>
    <tripinfo id="Motorcycle2" depart="6.00" departLane="2_0_0" departPos="2.30" departSpeed="14.72" departDelay="0.00" arrival="124.00" arrivalLane="3_1_0" arrivalPos="750.00" arrivalSpeed="14.11" duration="118.00" routeLength="1506.73" waitingTime="0.00" waitingCount="0" stopTime="0.00" timeLoss="14.36" rerouteNo="0" devices="tripinfo_Motorcycle2 routing_Motorcycle2" vType="Motorcycle" speedFactor="1.06" vaporized=""/>
    <tripinfo id="Car19" depart="10.00" departLane="2_0_0" departPos="5.10" departSpeed="14.31" departDelay="0.00" arrival="125.00" arrivalLane="3_1_1" arrivalPos="750.00" arrivalSpeed="13.74" duration="115.00" routeLength="1503.93" waitingTime="0.00" waitingCount="0" stopTime="0.00" timeLoss="8.70" rerouteNo="0" devices="tripinfo_Car19 routing_Car19" vType="Car" speedFactor="1.03" vaporized=""/>
    <tripinfo id="Car35" depart="7.00" departLane="1_0_1" departPos="5.10" departSpeed="10.19" departDelay="1.00" arrival="132.00" arrivalLane="3_1_0" arrivalPos="750.00" arrivalSpeed="13.33" duration="125.00" routeLength="1516.89" waitingTime="6.00" waitingCount="1" stopTime="0.00" timeLoss="16.05" rerouteNo="0" devices="tripinfo_Car35 routing_Car35" vType="Car" speedFactor="1.01" vaporized=""/>
    <tripinfo id="Car23" depart="21.00" departLane="1_0_0" departPos="5.10" departSpeed="14.26" departDelay="0.00" arrival="134.00" arrivalLane="4_1_0" arrivalPos="750.00" arrivalSpeed="14.16" duration="113.00" routeLength="1503.93" waitingTime="0.00" waitingCount="0" stopTime="0.00" timeLoss="6.52" rerouteNo="0" devices="tripinfo_Car23 routing_Car23" vType="Car" speedFactor="1.03" vaporized=""/>
    <tripinfo id="Car32" depart="6.00" departLane="1_0_1" departPos="5.10" departSpeed="13.03" departDelay="0.00" arrival="140.00" arrivalLane="3_1_0" arrivalPos="750.00" arrivalSpeed="12.00" duration="134.00" routeLength="1516.89" waitingTime="5.00" waitingCount="1" stopTime="0.00" timeLoss="16.29" rerouteNo="0" devices="tripinfo_Car32 routing_Car32" vType="Car" speedFactor="0.94" vaporized=""/>
    <tripinfo id="Car20" depart="16.00" departLane="2_0_0" departPos="5.10" departSpeed="13.03" departDelay="0.00" arrival="144.00" arrivalLane="3_1_0" arrivalPos="750.00" arrivalSpeed="12.52" duration="128.00" routeLength="1503.93" waitingTime="2.00" waitingCount="1" stopTime="0.00" timeLoss="11.89" rerouteNo="0" devices="tripinfo_Car20 routing_Car20" vType="Car" speedFactor="0.94" vaporized=""/>
    <tripinfo id="Car15" depart="16.00" departLane="3_0_0" departPos="5.10" departSpeed="15.15" departDelay="0.00" arrival="144.00" arrivalLane="1_1_0" arrivalPos="750.00" arrivalSpeed="14.38" duration="128.00" routeLength="1503.93" waitingTime="11.00" waitingCount="1" stopTime="0.00" timeLoss="27.91" rerouteNo="0" devices="tripinfo_Car15 routing_Car15" vType="Car" speedFactor="1.09" vaporized=""/>
    <tripinfo id="Car4" depart="25.00" departLane="3_0_1" departPos="5.10" departSpeed="15.60" departDelay="0.00" arrival="145.00" arrivalLane="2_1_0" arrivalPos="750.00" arrivalSpeed="14.62" duration="120.00" routeLength="1516.89" waitingTime="7.00" waitingCount="1" stopTime="0.00" timeLoss="21.89" rerouteNo="0" devices="tripinfo_Car4 routing_Car4" vType="Car" speedFactor="1.12" vaporized=""/>
    <tripinfo id="Car17" depart="25.00" departLane="3_0_0" departPos="5.10" departSpeed="14.54" departDelay="0.00" arrival="149.00" arrivalLane="1_1_0" arrivalPos="750.00" arrivalSpeed="13.57" duration="124.00" routeLength="1503.93" waitingTime="8.00" waitingCount="1" stopTime="0.00" timeLoss="19.72" rerouteNo="0" devices="tripinfo_Car17 routing_Car17" vType="Car" speedFactor="1.05" vaporized=""/>
    <tripinfo id="Car3" depart="36.00" departLane="4_0_1" departPos="5.10" departSpeed="9.17" departDelay="1.00" arrival="157.00" arrivalLane="3_1_0" arrivalPos="750.00" arrivalSpeed="13.31" duration="121.00" routeLength="1499.57" waitingTime="1.00" waitingCount="1" stopTime="0.00" timeLoss="13.59" rerouteNo="0" devices="tripinfo_Car3 routing_Car3" vType="Car" speedFactor="1.02" vaporized=""/>
    <tripinfo id="Car5" depart="10.00" departLane="3_0_1" departPos="5.10" departSpeed="11.54" departDelay="0.00" arrival="162.00" arrivalLane="2_1_0" arrivalPos="750.00" arrivalSpeed="11.06" duration="152.00" routeLength="1516.89" waitingTime="7.00" waitingCount="1" stopTime="0.00" timeLoss="19.30" rerouteNo="0" devices="tripinfo_Car5 routing_Car5" vType="Car" speedFactor="0.83" vaporized=""/>
    <tripinfo id="Truck7" depart="10.00" departLane="1_0_1" departPos="7.20" departSpeed="12.98" departDelay="0.00" arrival="166.00" arrivalLane="3_1_0" arrivalPos="750.00" arrivalSpeed="13.94" duration="156.00" routeLength="1514.79" waitingTime="29.00" waitingCount="2" stopTime="0.00" timeLoss="48.32" rerouteNo="0" devices="tripinfo_Truck7 routing_Truck7" vType="Truck" speedFactor="1.02" vaporized=""/>
    <tripinfo id="Car8" depart="36.00" departLane="3_0_0" departPos="5.10" departSpeed="10.69" departDelay="1.00" arrival="168.00" arrivalLane="1_1_0" arrivalPos="750.00" arrivalSpeed="15.22" duration="132.00" routeLength="1503.93" waitingTime="13.00" waitingCount="1" stopTime="0.00" timeLoss="37.31" rerouteNo="0" devices="tripinfo_Car8 routing_Car8" vType="Car" speedFactor="1.16" vaporized=""/>
    <tripinfo id="Car1" depart="35.00" departLane="4_0_1" departPos="5.10" departSpeed="12.20" departDelay="0.00" arrival="171.00" arrivalLane="3_1_0" arrivalPos="750.00" arrivalSpeed="12.18" duration="136.00" routeLength="1499.57" waitingTime="0.00" waitingCount="0" stopTime="0.00" timeLoss="11.32" rerouteNo="0" devices="tripinfo_Car1 routing_Car1" vType="Car" speedFactor="0.88" vaporized=""/>
    <tripinfo id="Van5" depart="11.00" departLane="1_0_1" departPos="7.20" departSpeed="9.90" departDelay="0.00" arrival="173.00" arrivalLane="3_1_0" arrivalPos="750.00" arrivalSpeed="13.09" duration="162.00" routeLength="1514.79" waitingTime="27.00" waitingCount="2" stopTime="0.00" timeLoss="44.80" rerouteNo="0" devices="tripinfo_Van5 routing_Van5" vType="Truck" speedFactor="0.94" vaporized=""/>
    <tripinfo id="Car6" depart="35.00" departLane="3_0_0" departPos="5.10" departSpeed="13.08" departDelay="0.00" arrival="177.00" arrivalLane="1_1_0" arrivalPos="750.00" arrivalSpeed="12.23" duration="142.00" routeLength="1503.93" waitingTime="15.00" waitingCount="1" stopTime="0.00" timeLoss="25.44" rerouteNo="0" devices="tripinfo_Car6 routing_Car6" vType="Car" speedFactor="0.94" vaporized=""/>
    <tripinfo id="Car18" depart="35.00" departLane="3_0_1" departPos="5.10" departSpeed="13.00" departDelay="0.00" arrival="177.00" arrivalLane="4_1_0" arrivalPos="750.00" arrivalSpeed="12.84" duration="142.00" routeLength="1499.57" waitingTime="15.00" waitingCount="1" stopTime="0.00" timeLoss="25.95" rerouteNo="0" devices="tripinfo_Car18 routing_Car18" vType="Car" speedFactor="0.94" vaporized=""/>
    <tripinfo id="Truck3" depart="16.00" departLane="1_0_1" departPos="7.20" departSpeed="12.90" departDelay="0.00" arrival="187.00" arrivalLane="3_1_0" arrivalPos="750.00" arrivalSpeed="12.58" duration="171.00" routeLength="1514.79" waitingTime="31.00" waitingCount="3" stopTime="0.00" timeLoss="52.67" rerouteNo="0" devices="tripinfo_Truck3 routing_Truck3" vType="Truck" speedFactor="0.93" vaporized=""/>
    <tripinfo id="Car27" depart="31.00" departLane="1_0_1" departPos="5.10" departSpeed="13.77" departDelay="0.00" arrival="187.00" arrivalLane="3_1_1" arrivalPos="750.00" arrivalSpeed="12.57" duration="156.00" routeLength="1516.89" waitingTime="26.00" waitingCount="2" stopTime="0.00" timeLoss="44.51" rerouteNo="0" devices="tripinfo_Car27 routing_Car27" vType="Car" speedFactor="0.99" vaporized=""/>
    <tripinfo id="Van1" depart="82.00" departLane="3_0_0" departPos="7.20" departSpeed="14.96" departDelay="0.00" arrival="197.00" arrivalLane="1_1_0" arrivalPos="750.00" arrivalSpeed="14.52" duration="115.00" routeLength="1501.83" waitingTime="2.00" waitingCount="1" stopTime="0.00" timeLoss="13.66" rerouteNo="0" devices="tripinfo_Van1 routing_Van1" vType="Truck" speedFactor="1.08" vaporized=""/>
    <tripinfo id="Car22" depart="51.00" departLane="2_0_1" departPos="5.10" departSpeed="11.47" departDelay="0.00" arrival="202.00" arrivalLane="1_1_0" arrivalPos="750.00" arrivalSpeed="10.74" duration="151.00" routeLength="1499.57" waitingTime="6.00" waitingCount="1" stopTime="0.00" timeLoss="18.48" rerouteNo="0" devices="tripinfo_Car22 routing_Car22" vType="Car" speedFactor="0.83" vaporized=""/>
    <tripinfo id="Car7" depart="51.00" departLane="3_0_0" departPos="5.10" departSpeed="12.36" departDelay="0.00" arrival="204.00" arrivalLane="1_1_0" arrivalPos="750.00" arrivalSpeed="11.42" duration="153.00" routeLength="1503.93" waitingTime="16.00" waitingCount="1" stopTime="0.00" timeLoss="29.92" rerouteNo="0" devices="tripinfo_Car7 routing_Car7" vType="Car" speedFactor="0.89" vaporized=""/>
    <tripinfo id="Car2" depart="55.00" departLane="4_0_1" departPos="5.10" departSpeed="12.12" departDelay="0.00" arrival="213.00" arrivalLane="3_1_0" arrivalPos="750.00" arrivalSpeed="11.95" duration="158.00" routeLength="1499.57" waitingTime="22.00" waitingCount="1" stopTime="0.00" timeLoss="33.19" rerouteNo="0" devices="tripinfo_Car2 routing_Car2" vType="Car" speedFactor="0.87" vaporized=""/>
    <tripinfo id="Car28" depart="44.00" departLane="1_0_1" departPos="5.10" departSpeed="14.03" departDelay="0.00" arrival="216.00" arrivalLane="3_1_1" arrivalPos="750.00" arrivalSpeed="13.52" duration="172.00" routeLength="1516.89" waitingTime="38.00" waitingCount="3" stopTime="0.00" timeLoss="62.74" rerouteNo="0" devices="tripinfo_Car28 routing_Car28" vType="Car" speedFactor="1.01" vaporized=""/>
    <tripinfo id="Car34" depart="32.00" departLane="1_0_1" departPos="5.10" departSpeed="10.64" departDelay="1.00" arrival="218.00" arrivalLane="3_1_0" arrivalPos="750.00" arrivalSpeed="11.66" duration="186.00" routeLength="1516.89" waitingTime="44.00" waitingCount="3" stopTime="0.00" timeLoss="67.42" rerouteNo="0" devices="tripinfo_Car34 routing_Car34" vType="Car" speedFactor="0.93" vaporized=""/>
    <tripinfo id="Truck2" depart="89.00" departLane="2_0_0" departPos="7.20" departSpeed="14.03" departDelay="0.00" arrival="222.00" arrivalLane="3_1_0" arrivalPos="750.00" arrivalSpeed="13.68" duration="133.00" routeLength="1501.83" waitingTime="14.00" waitingCount="1" stopTime="0.00" timeLoss="24.58" rerouteNo="0" devices="tripinfo_Truck2 routing_Truck2" vType="Truck" speedFactor="1.01" vaporized=""/>
    <tripinfo id="Van2" depart="88.00" departLane="3_0_0" departPos="7.20" departSpeed="15.08" departDelay="0.00" arrival="226.00" arrivalLane="1_1_0" arrivalPos="750.00" arrivalSpeed="14.66" duration="138.00" routeLength="1501.83" waitingTime="23.00" waitingCount="1" stopTime="0.00" timeLoss="37.76" rerouteNo="0" devices="tripinfo_Van2 routing_Van2" vType="Truck" speedFactor="1.09" vaporized=""/>
    <tripinfo id="Truck1" depart="88.00" departLane="3_0_1" departPos="7.20" departSpeed="13.85" departDelay="0.00" arrival="231.00" arrivalLane="4_1_0" arrivalPos="750.00" arrivalSpeed="13.50" duration="143.00" routeLength="1497.47" waitingTime="22.00" waitingCount="1" stopTime="0.00" timeLoss="32.81" rerouteNo="0" devices="tripinfo_Truck1 routing_Truck1" vType="Truck" speedFactor="1.00" vaporized=""/>
    <tripinfo id="Car16" depart="92.00" departLane="3_0_0" departPos="5.10" departSpeed="13.52" departDelay="0.00" arrival="235.00" arrivalLane="1_1_0" arrivalPos="750.00" arrivalSpeed="12.88" duration="143.00" routeLength="1503.93" waitingTime="17.00" waitingCount="1" stopTime="0.00" timeLoss="30.53" rerouteNo="0" devices="tripinfo_Car16 routing_Car16" vType="Car" speedFactor="0.97" vaporized=""/>
    <tripinfo id="Car40" depart="47.00" departLane="1_0_1" departPos="5.10" departSpeed="13.54" departDelay="0.00" arrival="239.00" arrivalLane="3_1_0" arrivalPos="750.00" arrivalSpeed="12.65" duration="192.00" routeLength="1516.89" waitingTime="50.00" waitingCount="4" stopTime="0.00" timeLoss="79.10" rerouteNo="0" devices="tripinfo_Car40 routing_Car40" vType="Car" speedFactor="0.97" vaporized=""/>
    <tripinfo id="Car12" depart="101.00" departLane="3_0_0" departPos="5.10" departSpeed="15.31" departDelay="0.00" arrival="240.00" arrivalLane="1_1_0" arrivalPos="750.00" arrivalSpeed="14.25" duration="139.00" routeLength="1503.93" waitingTime="23.00" waitingCount="2" stopTime="0.00" timeLoss="39.53" rerouteNo="0" devices="tripinfo_Car12 routing_Car12" vType="Car" speedFactor="1.10" vaporized=""/>
    <tripinfo id="Car42" depart="55.00" departLane="1_0_1" departPos="5.10" departSpeed="12.74" departDelay="0.00" arrival="245.00" arrivalLane="2_1_0" arrivalPos="750.00" arrivalSpeed="12.55" duration="190.00" routeLength="1499.57" waitingTime="42.00" waitingCount="3" stopTime="0.00" timeLoss="71.33" rerouteNo="0" devices="tripinfo_Car42 routing_Car42" vType="Car" speedFactor="0.92" vaporized=""/>
    <tripinfo id="Car25" depart="140.00" departLane="1_0_0" departPos="5.10" departSpeed="16.24" departDelay="0.00" arrival="255.00" arrivalLane="4_1_0" arrivalPos="750.00" arrivalSpeed="16.10" duration="115.00" routeLength="1503.93" waitingTime="11.00" waitingCount="1" stopTime="0.00" timeLoss="21.34" rerouteNo="0" devices="tripinfo_Car25 routing_Car25" vType="Car" speedFactor="1.17" vaporized=""/>
    <tripinfo id="Car24" depart="132.00" departLane="1_0_0" departPos="5.10" departSpeed="15.17" departDelay="0.00" arrival="256.00" arrivalLane="4_1_0" arrivalPos="750.00" arrivalSpeed="14.70" duration="124.00" routeLength="1503.93" waitingTime="14.00" waitingCount="1" stopTime="0.00" timeLoss="24.02" rerouteNo="0" devices="tripinfo_Car24 routing_Car24" vType="Car" speedFactor="1.09" vaporized=""/>
    <tripinfo id="Car38" depart="59.00" departLane="1_0_1" departPos="5.10" departSpeed="13.66" departDelay="0.00" arrival="257.00" arrivalLane="3_1_1" arrivalPos="750.00" arrivalSpeed="14.61" duration="198.00" routeLength="1516.89" waitingTime="55.00" waitingCount="4" stopTime="0.00" timeLoss="100.61" rerouteNo="0" devices="tripinfo_Car38 routing_Car38" vType="Car" speedFactor="1.13" vaporized=""/>
    <tripinfo id="Car0" depart="129.00" departLane="4_0_1" departPos="5.10" departSpeed="13.29" departDelay="0.00" arrival="257.00" arrivalLane="3_1_0" arrivalPos="750.00" arrivalSpeed="12.54" duration="128.00" routeLength="1499.57" waitingTime="2.00" waitingCount="1" stopTime="0.00" timeLoss="13.60" rerouteNo="0" devices="tripinfo_Car0 routing_Car0" vType="Car" speedFactor="0.96" vaporized=""/>
    <tripinfo id="Car37" depart="56.00" departLane="1_0_1" departPos="5.10" departSpeed="9.68" departDelay="1.00" arrival="264.00" arrivalLane="3_1_0" arrivalPos="750.00" arrivalSpeed="12.09" duration="208.00" routeLength="1516.89" waitingTime="56.00" waitingCount="4" stopTime="0.00" timeLoss="92.14" rerouteNo="0" devices="tripinfo_Car37 routing_Car37" vType="Car" speedFactor="0.95" vaporized=""/>
    <tripinfo id="Truck8" depart="132.00" departLane="2_0_1" departPos="7.20" departSpeed="14.15" departDelay="0.00" arrival="271.00" arrivalLane="4_1_0" arrivalPos="750.00" arrivalSpeed="13.95" duration="139.00" routeLength="1514.79" waitingTime="20.00" waitingCount="1" stopTime="0.00" timeLoss="30.66" rerouteNo="0" devices="tripinfo_Truck8 routing_Truck8" vType="Truck" speedFactor="1.02" vaporized=""/>
    <tripinfo id="Car9" depart="161.00" departLane="3_0_0" departPos="5.10" departSpeed="14.12" departDelay="0.00" arrival="280.00" arrivalLane="1_1_1" arrivalPos="750.00" arrivalSpeed="13.44" duration="119.00" routeLength="1503.93" waitingTime="0.00" waitingCount="0" stopTime="0.00" timeLoss="11.57" rerouteNo="0" devices="tripinfo_Car9 routing_Car9" vType="Car" speedFactor="1.02" vaporized=""/>
    <tripinfo id="Truck0" depart="137.00" departLane="3_0_0" departPos="7.20" departSpeed="13.04" departDelay="0.00" arrival="282.00" arrivalLane="1_1_0" arrivalPos="750.00" arrivalSpeed="12.87" duration="145.00" routeLength="1501.83" waitingTime="18.00" waitingCount="1" stopTime="0.00" timeLoss="28.44" rerouteNo="0" devices="tripinfo_Truck0 routing_Truck0" vType="Truck" speedFactor="0.94" vaporized=""/>
    <tripinfo id="Truck6" depart="73.00" departLane="1_0_1" departPos="7.20" departSpeed="5.09" departDelay="0.00" arrival="284.00" arrivalLane="3_1_1" arrivalPos="750.00" arrivalSpeed="15.05" duration="211.00" routeLength="1514.79" waitingTime="71.00" waitingCount="5" stopTime="0.00" timeLoss="109.64" rerouteNo="0" devices="tripinfo_Truck6 routing_Truck6" vType="Truck" speedFactor="1.09" vaporized=""/>
    <tripinfo id="Motorcycle3" depart="139.00" departLane="2_0_0" departPos="2.30" departSpeed="11.81" departDelay="0.00" arrival="287.00" arrivalLane="3_1_0" arrivalPos="750.00" arrivalSpeed="11.43" duration="148.00" routeLength="1506.73" waitingTime="0.00" waitingCount="0" stopTime="0.00" timeLoss="19.76" rerouteNo="0" devices="tripinfo_Motorcycle3 routing_Motorcycle3" vType="Motorcycle" speedFactor="0.85" vaporized=""/>
    <tripinfo id="Motorcycle0" depart="140.00" departLane="3_0_1" departPos="2.30" departSpeed="11.87" departDelay="0.00" arrival="293.00" arrivalLane="2_1_0" arrivalPos="750.00" arrivalSpeed="10.89" duration="153.00" routeLength="1519.69" waitingTime="2.00" waitingCount="1" stopTime="0.00" timeLoss="23.45" rerouteNo="0" devices="tripinfo_Motorcycle0 routing_Motorcycle0" vType="Motorcycle" speedFactor="0.85" vaporized=""/>
    <tripinfo id="Car21" depart="135.00" departLane="2_0_1" departPos="5.10" departSpeed="12.51" departDelay="0.00" arrival="299.00" arrivalLane="1_1_0" arrivalPos="750.00" arrivalSpeed="11.67" duration="164.00" routeLength="1499.57" waitingTime="28.00" waitingCount="2" stopTime="0.00" timeLoss="42.93" rerouteNo="0" devices="tripinfo_Car21 routing_Car21" vType="Car" speedFactor="0.90" vaporized=""/>
    <tripinfo id="Van0" depart="172.00" departLane="3_0_0" departPos="7.20" departSpeed="14.56" departDelay="0.00" arrival="300.00" arrivalLane="1_1_1" arrivalPos="750.00" arrivalSpeed="14.31" duration="128.00" routeLength="1501.83" waitingTime="14.00" waitingCount="1" stopTime="0.00" timeLoss="24.09" rerouteNo="0" devices="tripinfo_Van0 routing_Van0" vType="Truck" speedFactor="1.05" vaporized=""/>
    <tripinfo id="Motorcycle5" depart="72.00" departLane="1_0_1" departPos="2.30" departSpeed="12.94" departDelay="0.00" arrival="301.00" arrivalLane="3_1_0" arrivalPos="750.00" arrivalSpeed="12.44" duration="229.00" routeLength="1519.69" waitingTime="65.00" waitingCount="4" stopTime="0.00" timeLoss="111.01" rerouteNo="0" devices="tripinfo_Motorcycle5 routing_Motorcycle5" vType="Motorcycle" speedFactor="0.93" vaporized=""/>
    <tripinfo id="Car33" depart="82.00" departLane="1_0_1" departPos="5.10" departSpeed="13.96" departDelay="0.00" arrival="309.00" arrivalLane="3_1_0" arrivalPos="750.00" arrivalSpeed="13.57" duration="227.00" routeLength="1516.89" waitingTime="78.00" waitingCount="5" stopTime="0.00" timeLoss="117.48" rerouteNo="0" devices="tripinfo_Car33 routing_Car33" vType="Car" speedFactor="1.01" vaporized=""/>
    <tripinfo id="Van6" depart="97.00" departLane="1_0_1" departPos="7.20" departSpeed="15.14" departDelay="0.00" arrival="309.00" arrivalLane="3_1_1" arrivalPos="750.00" arrivalSpeed="15.11" duration="212.00" routeLength="1514.79" waitingTime="73.00" waitingCount="5" stopTime="0.00" timeLoss="110.52" rerouteNo="0" devices="tripinfo_Van6 routing_Van6" vType="Truck" speedFactor="1.09" vaporized=""/>
    <tripinfo id="Motorcycle4" depart="196.00" departLane="2_0_0" departPos="2.30" departSpeed="15.87" departDelay="0.00" arrival="315.00" arrivalLane="3_1_0" arrivalPos="750.00" arrivalSpeed="13.82" duration="119.00" routeLength="1506.73" waitingTime="7.00" waitingCount="1" stopTime="0.00" timeLoss="23.00" rerouteNo="0" devices="tripinfo_Motorcycle4 routing_Motorcycle4" vType="Motorcycle" speedFactor="1.14" vaporized=""/>
    <tripinfo id="Motorcycle1" depart="183.00" departLane="2_0_0" departPos="2.30" departSpeed="13.83" departDelay="0.00" arrival="320.00" arrivalLane="3_1_0" arrivalPos="750.00" arrivalSpeed="12.88" duration="137.00" routeLength="1506.73" waitingTime="11.00" waitingCount="1" stopTime="0.00" timeLoss="27.36" rerouteNo="0" devices="tripinfo_Motorcycle1 routing_Motorcycle1" vType="Motorcycle" speedFactor="1.00" vaporized=""/>
    <tripinfo id="Car10" depart="202.00" departLane="3_0_0" departPos="5.10" departSpeed="15.04" departDelay="0.00" arrival="323.00" arrivalLane="1_1_0" arrivalPos="750.00" arrivalSpeed="14.67" duration="121.00" routeLength="1503.93" waitingTime="10.00" waitingCount="1" stopTime="0.00" timeLoss="19.77" rerouteNo="0" devices="tripinfo_Car10 routing_Car10" vType="Car" speedFactor="1.08" vaporized=""/>
    <tripinfo id="Car13" depart="184.00" departLane="3_0_0" departPos="5.10" departSpeed="12.49" departDelay="0.00" arrival="331.00" arrivalLane="1_1_0" arrivalPos="750.00" arrivalSpeed="11.21" duration="147.00" routeLength="1503.93" waitingTime="14.00" waitingCount="1" stopTime="0.00" timeLoss="25.21" rerouteNo="0" devices="tripinfo_Car13 routing_Car13" vType="Car" speedFactor="0.90" vaporized=""/>
    <tripinfo id="Car11" depart="214.00" departLane="3_0_0" departPos="5.10" departSpeed="15.55" departDelay="0.00" arrival="334.00" arrivalLane="1_1_0" arrivalPos="750.00" arrivalSpeed="14.81" duration="120.00" routeLength="1503.93" waitingTime="9.00" waitingCount="1" stopTime="0.00" timeLoss="22.14" rerouteNo="0" devices="tripinfo_Car11 routing_Car11" vType="Car" speedFactor="1.12" vaporized=""/>
    <tripinfo id="Van4" depart="123.00" departLane="1_0_1" departPos="7.20" departSpeed="14.10" departDelay="0.00" arrival="337.00" arrivalLane="3_1_0" arrivalPos="750.00" arrivalSpeed="13.65" duration="214.00" routeLength="1514.79" waitingTime="66.00" waitingCount="5" stopTime="0.00" timeLoss="105.11" rerouteNo="0" devices="tripinfo_Van4 routing_Van4" vType="Truck" speedFactor="1.02" vaporized=""/>
    <tripinfo id="Car30" depart="108.00" departLane="1_0_1" departPos="5.10" departSpeed="12.51" departDelay="0.00" arrival="340.00" arrivalLane="3_1_0" arrivalPos="750.00" arrivalSpeed="11.53" duration="232.00" routeLength="1516.89" waitingTime="69.00" waitingCount="5" stopTime="0.00" timeLoss="110.05" rerouteNo="0" devices="tripinfo_Car30 routing_Car30" vType="Car" speedFactor="0.90" vaporized=""/>
    <tripinfo id="Truck5" depart="134.00" departLane="1_0_1" departPos="7.20" departSpeed="14.19" departDelay="0.00" arrival="350.00" arrivalLane="3_1_0" arrivalPos="750.00" arrivalSpeed="13.92" duration="216.00" routeLength="1514.79" waitingTime="63.00" waitingCount="6" stopTime="0.00" timeLoss="108.08" rerouteNo="0" devices="tripinfo_Truck5 routing_Truck5" vType="Truck" speedFactor="1.02" vaporized=""/>
    <tripinfo id="Van7" depart="135.00" departLane="1_0_1" departPos="7.20" departSpeed="11.35" departDelay="1.00" arrival="353.00" arrivalLane="2_1_0" arrivalPos="750.00" arrivalSpeed="14.43" duration="218.00" routeLength="1497.47" waitingTime="62.00" waitingCount="6" stopTime="0.00" timeLoss="112.94" rerouteNo="0" devices="tripinfo_Van7 routing_Van7" vType="Truck" speedFactor="1.04" vaporized=""/>
    <tripinfo id="Car36" depart="136.00" departLane="1_0_1" departPos="5.10" departSpeed="8.76" departDelay="2.00" arrival="358.00" arrivalLane="3_1_0" arrivalPos="750.00" arrivalSpeed="13.33" duration="222.00" routeLength="1516.89" waitingTime="57.00" waitingCount="6" stopTime="0.00" timeLoss="112.08" rerouteNo="0" devices="tripinfo_Car36 routing_Car36" vType="Car" speedFactor="1.00" vaporized=""/>
    <tripinfo id="Truck4" depart="172.00" departLane="1_0_1" departPos="7.20" departSpeed="13.91" departDelay="0.00" arrival="360.00" arrivalLane="3_1_1" arrivalPos="750.00" arrivalSpeed="13.63" duration="188.00" routeLength="1514.79" waitingTime="41.00" waitingCount="4" stopTime="0.00" timeLoss="78.14" rerouteNo="0" devices="tripinfo_Truck4 routing_Truck4" vType="Truck" speedFactor="1.00" vaporized=""/>
    <tripinfo id="Car29" depart="197.00" departLane="1_0_1" departPos="5.10" departSpeed="14.22" departDelay="0.00" arrival="362.00" arrivalLane="3_1_0" arrivalPos="750.00" arrivalSpeed="13.20" duration="165.00" routeLength="1516.89" waitingTime="24.00" waitingCount="3" stopTime="0.00" timeLoss="57.02" rerouteNo="0" devices="tripinfo_Car29 routing_Car29" vType="Car" speedFactor="1.02" vaporized=""/>
    <tripinfo id="Car26" depart="198.00" departLane="1_0_1" departPos="5.10" departSpeed="11.93" departDelay="1.00" arrival="367.00" arrivalLane="3_1_0" arrivalPos="750.00" arrivalSpeed="12.78" duration="169.00" routeLength="1516.89" waitingTime="21.00" waitingCount="3" stopTime="0.00" timeLoss="55.04" rerouteNo="0" devices="tripinfo_Car26 routing_Car26" vType="Car" speedFactor="0.97" vaporized=""/>
    <tripinfo id="Car39" depart="271.00" departLane="1_0_1" departPos="5.10" departSpeed="14.11" departDelay="0.00" arrival="386.00" arrivalLane="3_1_0" arrivalPos="750.00" arrivalSpeed="12.87" duration="115.00" routeLength="1516.89" waitingTime="0.00" waitingCount="0" stopTime="0.00" timeLoss="6.38" rerouteNo="0" devices="tripinfo_Car39 routing_Car39" vType="Car" speedFactor="1.02" vaporized=""/>
    <tripinfo id="Car31" depart="281.00" departLane="1_0_1" departPos="5.10" departSpeed="13.71" departDelay="0.00" arrival="399.00" arrivalLane="3_1_0" arrivalPos="750.00" arrivalSpeed="13.64" duration="118.00" routeLength="1516.89" waitingTime="0.00" waitingCount="0" stopTime="0.00" timeLoss="6.20" rerouteNo="0" devices="tripinfo_Car31 routing_Car31" vType="Car" speedFactor="0.99" vaporized=""/>
    <tripinfo id="Car41" depart="282.00" departLane="1_0_1" departPos="5.10" departSpeed="10.78" departDelay="1.00" arrival="409.00" arrivalLane="2_1_0" arrivalPos="750.00" arrivalSpeed="11.73" duration="127.00" routeLength="1499.57" waitingTime="0.00" waitingCount="0" stopTime="0.00" timeLoss="10.12" rerouteNo="0" devices="tripinfo_Car41 routing_Car41" vType="Car" speedFactor="0.94" vaporized=""/>
    <tripinfo id="Truck9" depart="284.00" departLane="2_0_1" departPos="7.20" departSpeed="13.07" departDelay="0.00" arrival="419.00" arrivalLane="4_1_0" arrivalPos="750.00" arrivalSpeed="12.93" duration="135.00" routeLength="1514.79" waitingTime="8.00" waitingCount="1" stopTime="0.00" timeLoss="17.81" rerouteNo="0" devices="tripinfo_Truck9 routing_Truck9" vType="Truck" speedFactor="0.94" vaporized=""/>
    <tripinfo id="Van3" depart="285.00" departLane="2_0_1" departPos="7.20" departSpeed="10.16" departDelay="1.00" arrival="421.00" arrivalLane="1_1_0" arrivalPos="750.00" arrivalSpeed="13.08" duration="136.00" routeLength="1497.47" waitingTime="7.00" waitingCount="1" stopTime="0.00" timeLoss="21.59" rerouteNo="0" devices="tripinfo_Van3 routing_Van3" vType="Truck" speedFactor="0.96" vaporized=""/>
    <tripinfo id="Car48" depart="310.00" departLane="3_0_1" departPos="5.10" departSpeed="14.21" departDelay="0.00" arrival="423.00" arrivalLane="2_1_0" arrivalPos="750.00" arrivalSpeed="13.89" duration="113.00" routeLength="1516.89" waitingTime="0.00" waitingCount="0" stopTime="0.00" timeLoss="5.39" rerouteNo="0" devices="tripinfo_Car48 routing_Car48" vType="Car" speedFactor="1.02" vaporized=""/>
    <tripinfo id="Car14" depart="284.00" departLane="3_0_0" departPos="5.10" departSpeed="12.60" departDelay="0.00" arrival="427.00" arrivalLane="1_1_0" arrivalPos="750.00" arrivalSpeed="12.01" duration="143.00" routeLength="1503.93" waitingTime="12.00" waitingCount="1" stopTime="0.00" timeLoss="22.03" rerouteNo="0" devices="tripinfo_Car14 routing_Car14" vType="Car" speedFactor="0.91" vaporized=""/>
    <tripinfo id="Car43" depart="295.00" departLane="1_0_1" departPos="5.10" departSpeed="14.45" departDelay="0.00" arrival="427.00" arrivalLane="2_1_0" arrivalPos="750.00" arrivalSpeed="13.24" duration="132.00" routeLength="1499.57" waitingTime="17.00" waitingCount="1" stopTime="0.00" timeLoss="26.52" rerouteNo="0" devices="tripinfo_Car43 routing_Car43" vType="Car" speedFactor="1.04" vaporized=""/>
    <tripinfo id="Van8" depart="296.00" departLane="1_0_1" departPos="7.20" departSpeed="10.35" departDelay="1.00" arrival="433.00" arrivalLane="2_1_0" arrivalPos="750.00" arrivalSpeed="13.79" duration="137.00" routeLength="1497.47" waitingTime="16.00" waitingCount="1" stopTime="0.00" timeLoss="29.13" rerouteNo="0" devices="tripinfo_Van8 routing_Van8" vType="Truck" speedFactor="1.01" vaporized=""/>